<?xml version="1.0" encoding="UTF-8"?>

<!-- generated on Sun Feb 17 15:57:00 2019 by 
<configuration xmlns:xsi="http://www.w3.org/2001/XMLSchema-instance" xsi:noNamespaceSchemaLocation="http://sumo.dlr.de/xsd/Configuration.xsd">

    <input>
        <net-file value="/home/sda/Documents/sumo-sathorn-ray/models/sathorn-morning/sathorn_w_fixed_20160404.net.xml"/>
        <route-files value="/home/sda/Documents/sumo-sathorn-ray/models/sathorn-morning/Great-route/sathorn_w_20160422edit2.rou.xml"/>
        <additional-files value="/home/sda/Documents/sumo-sathorn-ray/models/sathorn-morning/sathon_wide_tls_20160418_edited.add.xml,/home/sda/Documents/sumo-sathorn-ray/detectors/sathorn_w_detectors.add.xml"/>
    </input>

    <time>
        <begin value="21600"/>
        <end value="32400"/>
        <step-length value="1"/>
    </time>

    <processing>
        <no-internal-links value="true"/>
        <ignore-junction-blocker value="-1"/>
        <time-to-teleport value="-1"/>
        <eager-insert value="true"/>
        <time-to-impatience value="300"/>
    </processing>

    <report>
        <no-warnings value="true"/>
    </report>

    <random_number>
        <random value="false"/>
        <seed value="20"/>
    </random_number>

    <gui_only>
        <gui-settings-file value="/home/sda/Documents/sumo-sathorn-ray/gui-settings/gui-settings-file-surasak.xml"/>
        <quit-on-end value="true"/>
        <start value="true"/>
        <tracker-interval value="1"/>
    </gui_only>

</configuration>
-->

<detector xmlns:xsi="http://www.w3.org/2001/XMLSchema-instance" xsi:noNamespaceSchemaLocation="http://sumo.dlr.de/xsd/det_e1_file.xsd">
    <interval begin="21600.00" end="21700.00" id="e1_L239_1" nVehContrib="0" flow="0.00" occupancy="0.00" speed="-1.00" length="-1.00" nVehEntered="0"/>
    <interval begin="21700.00" end="21800.00" id="e1_L239_1" nVehContrib="0" flow="0.00" occupancy="0.00" speed="-1.00" length="-1.00" nVehEntered="0"/>
    <interval begin="21800.00" end="21900.00" id="e1_L239_1" nVehContrib="3" flow="108.00" occupancy="6.61" speed="2.41" length="4.62" nVehEntered="3"/>
    <interval begin="21900.00" end="22000.00" id="e1_L239_1" nVehContrib="4" flow="144.00" occupancy="6.04" speed="3.16" length="4.62" nVehEntered="4"/>
    <interval begin="22000.00" end="22100.00" id="e1_L239_1" nVehContrib="0" flow="0.00" occupancy="0.00" speed="-1.00" length="-1.00" nVehEntered="0"/>
    <interval begin="22100.00" end="22200.00" id="e1_L239_1" nVehContrib="0" flow="0.00" occupancy="0.00" speed="-1.00" length="-1.00" nVehEntered="0"/>
    <interval begin="22200.00" end="22300.00" id="e1_L239_1" nVehContrib="0" flow="0.00" occupancy="0.00" speed="-1.00" length="-1.00" nVehEntered="0"/>
    <interval begin="22300.00" end="22400.00" id="e1_L239_1" nVehContrib="1" flow="36.00" occupancy="2.28" speed="2.02" length="4.62" nVehEntered="1"/>
    <interval begin="22400.00" end="22500.00" id="e1_L239_1" nVehContrib="1" flow="36.00" occupancy="1.69" speed="2.73" length="4.62" nVehEntered="1"/>
    <interval begin="22500.00" end="22600.00" id="e1_L239_1" nVehContrib="0" flow="0.00" occupancy="0.00" speed="-1.00" length="-1.00" nVehEntered="0"/>
    <interval begin="22600.00" end="22700.00" id="e1_L239_1" nVehContrib="0" flow="0.00" occupancy="0.00" speed="-1.00" length="-1.00" nVehEntered="0"/>
    <interval begin="22700.00" end="22800.00" id="e1_L239_1" nVehContrib="0" flow="0.00" occupancy="0.00" speed="-1.00" length="-1.00" nVehEntered="0"/>
    <interval begin="22800.00" end="22900.00" id="e1_L239_1" nVehContrib="0" flow="0.00" occupancy="0.00" speed="-1.00" length="-1.00" nVehEntered="0"/>
    <interval begin="22900.00" end="23000.00" id="e1_L239_1" nVehContrib="0" flow="0.00" occupancy="0.00" speed="-1.00" length="-1.00" nVehEntered="0"/>
    <interval begin="23000.00" end="23100.00" id="e1_L239_1" nVehContrib="0" flow="0.00" occupancy="0.00" speed="-1.00" length="-1.00" nVehEntered="0"/>
    <interval begin="23100.00" end="23200.00" id="e1_L239_1" nVehContrib="0" flow="0.00" occupancy="0.00" speed="-1.00" length="-1.00" nVehEntered="0"/>
    <interval begin="23200.00" end="23300.00" id="e1_L239_1" nVehContrib="0" flow="0.00" occupancy="0.00" speed="-1.00" length="-1.00" nVehEntered="0"/>
    <interval begin="23300.00" end="23400.00" id="e1_L239_1" nVehContrib="0" flow="0.00" occupancy="0.00" speed="-1.00" length="-1.00" nVehEntered="0"/>
    <interval begin="23400.00" end="23500.00" id="e1_L239_1" nVehContrib="0" flow="0.00" occupancy="0.00" speed="-1.00" length="-1.00" nVehEntered="0"/>
    <interval begin="23500.00" end="23600.00" id="e1_L239_1" nVehContrib="0" flow="0.00" occupancy="0.00" speed="-1.00" length="-1.00" nVehEntered="0"/>
    <interval begin="23600.00" end="23700.00" id="e1_L239_1" nVehContrib="0" flow="0.00" occupancy="0.00" speed="-1.00" length="-1.00" nVehEntered="0"/>
    <interval begin="23700.00" end="23800.00" id="e1_L239_1" nVehContrib="1" flow="36.00" occupancy="2.33" speed="1.98" length="4.62" nVehEntered="1"/>
    <interval begin="23800.00" end="23900.00" id="e1_L239_1" nVehContrib="1" flow="36.00" occupancy="3.77" speed="1.22" length="4.62" nVehEntered="1"/>
    <interval begin="23900.00" end="24000.00" id="e1_L239_1" nVehContrib="1" flow="36.00" occupancy="2.33" speed="1.98" length="4.62" nVehEntered="1"/>
    <interval begin="24000.00" end="24100.00" id="e1_L239_1" nVehContrib="0" flow="0.00" occupancy="0.00" speed="-1.00" length="-1.00" nVehEntered="0"/>
    <interval begin="24100.00" end="24200.00" id="e1_L239_1" nVehContrib="1" flow="36.00" occupancy="2.22" speed="2.09" length="4.62" nVehEntered="1"/>
    <interval begin="24200.00" end="24300.00" id="e1_L239_1" nVehContrib="0" flow="0.00" occupancy="0.00" speed="-1.00" length="-1.00" nVehEntered="0"/>
    <interval begin="24300.00" end="24400.00" id="e1_L239_1" nVehContrib="0" flow="0.00" occupancy="0.00" speed="-1.00" length="-1.00" nVehEntered="0"/>
    <interval begin="24400.00" end="24500.00" id="e1_L239_1" nVehContrib="0" flow="0.00" occupancy="0.00" speed="-1.00" length="-1.00" nVehEntered="0"/>
    <interval begin="24500.00" end="24600.00" id="e1_L239_1" nVehContrib="0" flow="0.00" occupancy="0.00" speed="-1.00" length="-1.00" nVehEntered="0"/>
    <interval begin="24600.00" end="24700.00" id="e1_L239_1" nVehContrib="1" flow="36.00" occupancy="2.02" speed="2.29" length="4.62" nVehEntered="1"/>
    <interval begin="24700.00" end="24800.00" id="e1_L239_1" nVehContrib="3" flow="108.00" occupancy="5.35" speed="2.68" length="4.62" nVehEntered="3"/>
    <interval begin="24800.00" end="24900.00" id="e1_L239_1" nVehContrib="0" flow="0.00" occupancy="0.00" speed="-1.00" length="-1.00" nVehEntered="0"/>
    <interval begin="24900.00" end="25000.00" id="e1_L239_1" nVehContrib="1" flow="36.00" occupancy="1.48" speed="3.12" length="4.62" nVehEntered="1"/>
    <interval begin="25000.00" end="25100.00" id="e1_L239_1" nVehContrib="0" flow="0.00" occupancy="0.00" speed="-1.00" length="-1.00" nVehEntered="0"/>
    <interval begin="25100.00" end="25200.00" id="e1_L239_1" nVehContrib="0" flow="0.00" occupancy="0.00" speed="-1.00" length="-1.00" nVehEntered="0"/>
    <interval begin="25200.00" end="25300.00" id="e1_L239_1" nVehContrib="0" flow="0.00" occupancy="0.00" speed="-1.00" length="-1.00" nVehEntered="0"/>
    <interval begin="25300.00" end="25400.00" id="e1_L239_1" nVehContrib="0" flow="0.00" occupancy="0.00" speed="-1.00" length="-1.00" nVehEntered="0"/>
    <interval begin="25400.00" end="25500.00" id="e1_L239_1" nVehContrib="9" flow="324.00" occupancy="13.88" speed="3.10" length="4.62" nVehEntered="9"/>
    <interval begin="25500.00" end="25600.00" id="e1_L239_1" nVehContrib="6" flow="216.00" occupancy="9.74" speed="3.13" length="4.62" nVehEntered="6"/>
    <interval begin="25600.00" end="25700.00" id="e1_L239_1" nVehContrib="10" flow="360.00" occupancy="14.76" speed="3.88" length="4.62" nVehEntered="10"/>
    <interval begin="25700.00" end="25800.00" id="e1_L239_1" nVehContrib="0" flow="0.00" occupancy="0.00" speed="-1.00" length="-1.00" nVehEntered="0"/>
    <interval begin="25800.00" end="25900.00" id="e1_L239_1" nVehContrib="0" flow="0.00" occupancy="0.00" speed="-1.00" length="-1.00" nVehEntered="0"/>
    <interval begin="25900.00" end="26000.00" id="e1_L239_1" nVehContrib="0" flow="0.00" occupancy="0.00" speed="-1.00" length="-1.00" nVehEntered="0"/>
    <interval begin="26000.00" end="26100.00" id="e1_L239_1" nVehContrib="0" flow="0.00" occupancy="0.00" speed="-1.00" length="-1.00" nVehEntered="0"/>
    <interval begin="26100.00" end="26200.00" id="e1_L239_1" nVehContrib="0" flow="0.00" occupancy="0.00" speed="-1.00" length="-1.00" nVehEntered="0"/>
    <interval begin="26200.00" end="26300.00" id="e1_L239_1" nVehContrib="2" flow="72.00" occupancy="5.35" speed="1.88" length="4.62" nVehEntered="2"/>
    <interval begin="26300.00" end="26400.00" id="e1_L239_1" nVehContrib="0" flow="0.00" occupancy="0.00" speed="-1.00" length="-1.00" nVehEntered="0"/>
    <interval begin="26400.00" end="26500.00" id="e1_L239_1" nVehContrib="0" flow="0.00" occupancy="0.00" speed="-1.00" length="-1.00" nVehEntered="0"/>
    <interval begin="26500.00" end="26600.00" id="e1_L239_1" nVehContrib="1" flow="36.00" occupancy="1.43" speed="3.24" length="4.62" nVehEntered="1"/>
    <interval begin="26600.00" end="26700.00" id="e1_L239_1" nVehContrib="1" flow="36.00" occupancy="1.72" speed="2.68" length="4.62" nVehEntered="1"/>
    <interval begin="26700.00" end="26800.00" id="e1_L239_1" nVehContrib="0" flow="0.00" occupancy="0.00" speed="-1.00" length="-1.00" nVehEntered="0"/>
    <interval begin="26800.00" end="26900.00" id="e1_L239_1" nVehContrib="0" flow="0.00" occupancy="0.00