<?xml version="1.0" encoding="UTF-8"?>

<!-- generated on Sun Feb 17 15:57:00 2019 by 
<configuration xmlns:xsi="http://www.w3.org/2001/XMLSchema-instance" xsi:noNamespaceSchemaLocation="http://sumo.dlr.de/xsd/Configuration.xsd">

    <input>
        <net-file value="/home/sda/Documents/sumo-sathorn-ray/models/sathorn-morning/sathorn_w_fixed_20160404.net.xml"/>
        <route-files value="/home/sda/Documents/sumo-sathorn-ray/models/sathorn-morning/Great-route/sathorn_w_20160422edit2.rou.xml"/>
        <additional-files value="/home/sda/Documents/sumo-sathorn-ray/models/sathorn-morning/sathon_wide_tls_20160418_edited.add.xml,/home/sda/Documents/sumo-sathorn-ray/detectors/sathorn_w_detectors.add.xml"/>
    </input>

    <time>
        <begin value="21600"/>
        <end value="32400"/>
        <step-length value="1"/>
    </time>

    <processing>
        <no-internal-links value="true"/>
        <ignore-junction-blocker value="-1"/>
        <time-to-teleport value="-1"/>
        <eager-insert value="true"/>
        <time-to-impatience value="300"/>
    </processing>

    <report>
        <no-warnings value="true"/>
    </report>

    <random_number>
        <random value="false"/>
        <seed value="20"/>
    </random_number>

    <gui_only>
        <gui-settings-file value="/home/sda/Documents/sumo-sathorn-ray/gui-settings/gui-settings-file-surasak.xml"/>
        <quit-on-end value="true"/>
        <start value="true"/>
        <tracker-interval value="1"/>
    </gui_only>

</configuration>
-->

<detector xmlns:xsi="http://www.w3.org/2001/XMLSchema-instance" xsi:noNamespaceSchemaLocation="http://sumo.dlr.de/xsd/det_e1_file.xsd">
    <interval begin="21600.00" end="21700.00" id="e1_L10189_1" nVehContrib="0" flow="0.00" occupancy="0.00" speed="-1.00" length="-1.00" nVehEntered="0"/>
    <interval begin="21700.00" end="21800.00" id="e1_L10189_1" nVehContrib="1" flow="36.00" occupancy="0.37" speed="12.50" length="4.62" nVehEntered="1"/>
    <interval begin="21800.00" end="21900.00" id="e1_L10189_1" nVehContrib="5" flow="180.00" occupancy="6.80" speed="3.81" length="4.62" nVehEntered="5"/>
    <interval begin="21900.00" end="22000.00" id="e1_L10189_1" nVehContrib="11" flow="396.00" occupancy="5.08" speed="10.57" length="4.62" nVehEntered="11"/>
    <interval begin="22000.00" end="22100.00" id="e1_L10189_1" nVehContrib="7" flow="252.00" occupancy="2.79" speed="11.60" length="4.62" nVehEntered="7"/>
    <interval begin="22100.00" end="22200.00" id="e1_L10189_1" nVehContrib="17" flow="612.00" occupancy="16.21" speed="7.08" length="4.62" nVehEntered="17"/>
    <interval begin="22200.00" end="22300.00" id="e1_L10189_1" nVehContrib="23" flow="828.00" occupancy="12.35" speed="9.87" length="4.62" nVehEntered="23"/>
    <interval begin="22300.00" end="22400.00" id="e1_L10189_1" nVehContrib="22" flow="792.00" occupancy="13.30" speed="9.98" length="4.62" nVehEntered="22"/>
    <interval begin="22400.00" end="22500.00" id="e1_L10189_1" nVehContrib="21" flow="756.00" occupancy="10.41" speed="10.59" length="4.62" nVehEntered="21"/>
    <interval begin="22500.00" end="22600.00" id="e1_L10189_1" nVehContrib="19" flow="684.00" occupancy="15.78" speed="7.67" length="4.62" nVehEntered="19"/>
    <interval begin="22600.00" end="22700.00" id="e1_L10189_1" nVehContrib="27" flow="972.00" occupancy="13.12" speed="10.43" length="4.62" nVehEntered="27"/>
    <interval begin="22700.00" end="22800.00" id="e1_L10189_1" nVehContrib="13" flow="468.00" occupancy="8.10" speed="9.49" length="4.62" nVehEntered="13"/>
    <interval begin="22800.00" end="22900.00" id="e1_L10189_1" nVehContrib="0" flow="0.00" occupancy="0.00" speed="-1.00" length="-1.00" nVehEntered="0"/>
    <interval begin="22900.00" end="23000.00" id="e1_L10189_1" nVehContrib="0" flow="0.00" occupancy="0.00" speed="-1.00" length="-1.00" nVehEntered="0"/>
    <interval begin="23000.00" end="23100.00" id="e1_L10189_1" nVehContrib="2" flow="72.00" occupancy="2.99" speed="3.13" length="4.62" nVehEntered="2"/>
    <interval begin="23100.00" end="23200.00" id="e1_L10189_1" nVehContrib="0" flow="0.00" occupancy="0.00" speed="-1.00" length="-1.00" nVehEntered="0"/>
    <interval begin="23200.00" end="23300.00" id="e1_L10189_1" nVehContrib="23" flow="828.00" occupancy="15.82" speed="7.73" length="4.62" nVehEntered="23"/>
    <interval begin="23300.00" end="23400.00" id="e1_L10189_1" nVehContrib="16" flow="576.00" occupancy="17.95" speed="5.67" length="4.62" nVehEntered="16"/>
    <interval begin="23400.00" end="23500.00" id="e1_L10189_1" nVehContrib="23" flow="828.00" occupancy="19.10" speed="7.44" length="4.62" nVehEntered="23"/>
    <interval begin="23500.00" end="23600.00" id="e1_L10189_1" nVehContrib="21" flow="756.00" occupancy="35.28" speed="7.31" length="4.62" nVehEntered="21"/>
    <interval begin="23600.00" end="23700.00" id="e1_L10189_1" nVehContrib="11" flow="396.00" occupancy="11.47" speed="5.55" length="4.62" nVehEntered="11"/>
    <interval begin="23700.00" end="23800.00" id="e1_L10189_1" nVehContrib="10" flow="360.00" occupancy="17.78" speed="3.11" length="4.62" nVehEntered="10"/>
    <interval begin="23800.00" end="23900.00" id="e1_L10189_1" nVehContrib="18" flow="648.00" occupancy="20.85" speed="5.63" length="4.62" nVehEntered="18"/>
    <interval begin="23900.00" end="24000.00" id="e1_L10189_1" nVehContrib="20" flow="720.00" occupancy="10.89" speed="10.41" length="4.62" nVehEntered="20"/>
    <interval begin="24000.00" end="24100.00" id="e1_L10189_1" nVehContrib="28" flow="1008.00" occupancy="23.49" speed="7.75" length="4.62" nVehEntered="29"/>
    <interval begin="24100.00" end="24200.00" id="e1_L10189_1" nVehContrib="22" flow="792.00" occupancy="21.63" speed="7.01" length="4.62" nVehEntered="21"/>
    <interval begin="24200.00" end="24300.00" id="e1_L10189_1" nVehContrib="26" flow="936.00" occupancy="12.71" speed="10.16" length="4.62" nVehEntered="26"/>
    <interval begin="24300.00" end="24400.00" id="e1_L10189_1" nVehContrib="16" flow="576.00" occupancy="15.20" speed="7.24" length="4.62" nVehEntered="16"/>
    <interval begin="24400.00" end="24500.00" id="e1_L10189_1" nVehContrib="22" flow="792.00" occupancy="24.55" speed="5.55" length="4.62" nVehEntered="22"/>
    <interval begin="24500.00" end="24600.00" id="e1_L10189_1" nVehContrib="24" flow="864.00" occupancy="11.06" speed="10.99" length="4.62" nVehEntered="25"/>
    <interval begin="24600.00" end="24700.00" id="e1_L10189_1" nVehContrib="20" flow="720.00" occupancy="20.00" speed="7.54" length="4.62" nVehEntered="20"/>
    <interval begin="24700.00" end="24800.00" id="e1_L10189_1" nVehContrib="14" flow="504.00" occupancy="55.68" speed="4.12" length="4.62" nVehEntered="15"/>
    <interval begin="24800.00" end="24900.00" id="e1_L10189_1" nVehContrib="19" flow="684.00" occupancy="42.50" speed="5.21" length="4.62" nVehEntered="19"/>
    <interval begin="24900.00" end="25000.00" id="e1_L10189_1" nVehContrib="1" flow="36.00" occupancy="85.44" speed="0.13" length="4.62" nVehEntered="1"/>
    <interval begin="25000.00" end="25100.00" id="e1_L10189_1" nVehContrib="18" flow="648.00" occupancy="51.76" speed="3.69" length="4.62" nVehEntered="18"/>
    <interval begin="25100.00" end="25200.00" id="e1_L10189_1" nVehContrib="29" flow="1044.00" occupancy="28.60" speed="6.15" length="4.62" nVehEntered="29"/>
    <interval begin="25200.00" end="25300.00" id="e1_L10189_1" nVehContrib="23" flow="828.00" occupancy="26.96" speed="5.18" length="4.62" nVehEntered="22"/>
    <interval begin="25300.00" end="25400.00" id="e1_L10189_1" nVehContrib="6" flow="216.00" occupancy="12.25" speed="3.40" length="4.62" nVehEntered="7"/>
    <interval begin="25400.00" end="25500.00" id="e1_L10189_1" nVehContrib="9" flow="324.00" occupancy="14.59" speed="2.71" length="4.62" nVehEntered="8"/>
    <interval begin="25500.00" end="25600.00" id="e1_L10189_1" nVehContrib="12" flow="432.00" occupancy="17.58" speed="3.76" length="4.62" nVehEntered="12"/>
    <interval begin="25600.00" end="25700.00" id="e1_L10189_1" nVehContrib="8" flow="288.00" occupancy="13.32" speed="3.29" length="4.62" nVehEntered="9"/>
    <interval begin="25700.00" end="25800.00" id="e1_L10189_1" nVehContrib="23" flow="828.00" occupancy="29.18" speed="4.43" length="4.62" nVehEntered="22"/>
    <interval begin="25800.00" end="25900.00" id="e1_L10189_1" nVehContrib="18" flow="648.00" occupancy="25.20" speed="4.21" length="4.62" nVehEntered="19"/>
    <interval begin="25900.00" end="26000.00" id="e1_L10189_1" nVehContrib="22" flow="792.00" occupancy="32.16" speed="3.67" length="4.62" nVehEntered="22"/>
    <interval begin="26000.00" end="26100.00" id="e1_L10189_1" nVehContrib="15" flow="540.00" occupancy="30.63" speed="3.08" length="4.62" nVehEntered="14"/>
    <interval begin="26100.00" end="26200.00" id="e1_L10189_1" nVehContrib="26" flow="936.00" occupancy="34.37" speed="4.31" length="4.62" nVehEntered="26"/>
    <interval begin="26200.00" end="26300.00" id="e1_L10189_1" nVehContrib="13" flow="468.00" occupancy="15.79" speed="4.85" length="4.62" nVehEntered="13"/>
    <interval begin="26300.00" end="26400.00" id="e1_L10189_1" nVehContrib="21" flow="756.00" occupancy="14.14" speed="9.32" length="4.62" nVehEntered="21"/>
    <interval begin="26400.00" end="26500.00" id="e1_L10189_1" nVehContrib="17" flow="612.00" occupancy="11.17" speed="8.98" length="4.62" nVehEntered="17"/>
    <interval begin="26500.00" end="26600.00" id="e1_L10189_1" nVehContrib="20" flow="720.00" occupancy="16.76" speed="7.35" length="4.62" nVehEntered="20"/>
    <interval begin="26600.00" end="26700.00" id="e1_L10189_1" nVehContrib="20" flow="720.00" occupancy="16.53" speed="7.57" length="4.62" nVehEntered="20"/>
    <interval begin="26700.00" end="26800.00" id="e1_L10189_1" nVehContrib="22" flow="792.00" occupancy="11.75" speed="10.45" length="4.62" nVehEntered="22"/>
    <interval begin="26800.00" end="26900.00" id="e1_L10189_1" nVehContrib="14" flow="504.00" occupancy="14.50" speed="7.17" length="4.62" nVehEntered="15"/>
    <interval begin="26900.00" end="27000.00" id="e1_L10189_1" nVehContrib="18" flow="648.00" occupancy="20.64" speed="6.20" length="4.62" nVehEntered="17"/>
    <interval begin="27000.00" end="27100.00" id="e1_L10189_1" nVehContrib="28" flow="1008.00" occupancy="18.04" speed="9.60" length="4.62" nVehEntered="28"/>
    <interval begin="27100.00" end="27200.00" id="e1_L10189_1" nVehContrib="20" flow="720.00" occupancy="18.47" speed="7.14" length="4.62" nVehEntered="20"/>
    <interval begin="27200.00" end="27300.00" id="e1_L10189_1" nVehContrib="19" flow="684.00" occupancy="16.76" speed="7.54" length="4.62" nVehEntered="20"/>
    <interval begin="27300.00" end="27400.00" id="e1_L10189_1" nVehContrib="27" flow="972.00" occupancy="16.45" speed="9.95" length="4.62" nVehEntered="26"/>
    <interval begin="27400.00" end="27500.00" id="e1_L10189_1" nVehContrib="27" flow="972.00" occupancy="19.00" speed="7.98" length="4.62" nVehEntered="27"/>
    <interval begin="27500.00" end="27600.00" id="e1_L10189_1" nVehContrib="22" flow="792.00" occupancy="17.04" speed="8.62" length="4.62" nVehEntered="23"/>
    <interval begin="27600.00" end="27700.00" id="e1_L10189_1" nVehContrib="22" flow="792.00" occupancy="12.81" speed="9.70" length="4.62" nVehEntered="21"/>
    <interval begin="27700.00" end="27800.00" id="e1_L10189_1" nVehContrib="20" flow="720.00" occupancy="19.42" speed="7.42" length="4.62" nVehEntered="20"/>
    <interval begin="27800.00" end="27900.00" id="e1_L10189_1" nVehContrib="25" flow="900.00" occupancy="15.85" speed="9.65" length="4.62" nVehEntered="25"/>
    <interval begin="27900.00" end="28000.00" id="e1_L10189_1" nVehContrib="24" flow="864.00" occupancy="14.83" speed="10.50" length="4.62" nVehEntered="24"/>
    <interval begin="28000.00" end="28100.00" id="e1_L10189_1" nVehContrib="20" flow="720.00" occupancy="19.51" speed="6.22" length="4.62" nVehEntered="20"/>
    <interval begin="28100.00" end="28200.00" id="e1_L10189_1" nVehContrib="10" flow="360.00" occupancy="13.48" speed="4.15" length="4.62" nVehEntered="11"/>
    <interval begin="28200.00" end="28300.00" id="e1_L10189_1" nVehContrib="29" flow="1044.00" occupancy="18.28" speed="8.48" length="4.62" nVehEntered="28"/>
    <interval begin="28300.00" end="28400.00" id="e1_L10189_1" nVehContrib="31" flow="1116.00" occupancy="13.40" speed="11.30" length="4.62" nVehEntered="31"/>
    <interval begin="28400.00" end="28500.00" id="e1_L10189_1" nVehContrib="20" flow="720.00" occupancy="7.77" speed="11.91" length="4.62" nVehEntered="20"/>
    <interval begin="28500.00" end="28600.00" id="e1_L10189_1" nVehContrib="18" flow="648.00" occupancy="18.65" speed="5.50" length="4.62" nVehEntered="18"/>
    <interval begin="28600.00" end="28700.00" id="e1_L10189_1" nVehContrib="19" flow="684.00" occupancy="15.05" speed="8.73" length="4.62" nVehEntered="20"/>
    <interval begin="28700.00" end="28800.00" id="e1_L10189_1" nVehContrib="24" flow="864.00" occupancy="9.82" speed="11.40" length="4.62" nVehEntered="23"/>
    <interval begin="28800.00" end="28900.00" id="e1_L10189_1" nVehContrib="21" flow="756.00" occupancy="16.53" speed="8.71" length="4.62" nVehEntered="21"/>
    <interval begin="28900.00" end="29000.00" id="e1_L10189_1" nVehContrib="27" flow="972.00" occupancy="11.50" speed="11.23" length="4.62" nVehEntered="27"/>
    <interval begin="29000.00" end="29100.00" id="e1_L10189_1" nVehContrib="28" flow="1008.00" occupancy="18.81" speed="8.90" length="4.62" nVehEntered="28"/>
    <interval begin="29100.00" end="29200.00" id="e1_L10189_1" nVehContrib="22" flow="792.00" occupancy="12.95" speed="10.21" length="4.62" nVehEntered="22"/>
    <interval begin="29200.00" end="29300.00" id="e1_L10189_1" nVehContrib="29" flow="1044.00" occupancy="13.15" speed="10.80" length="4.62" nVehEntered="29"/>
    <interval begin="29300.00" end="29400.00" id="e1_L10189_1" nVehContrib="20" flow="720.00" occupancy="13.91" speed="9.09" length="4.62" nVehEntered="20"/>
    <interval begin="29400.00" end="29500.00" id="e1_L10189_1" nVehContrib="21" flow="756.00" occupancy="13.65" speed="8.92" length="4.62" nVehEntered="21"/>
    <interval begin="29500.00" end="29600.00" id="e1_L10189_1" nVehContrib="18" flow="648.00" occupancy="14.80" speed="7.09" length="4.62" nVehEntered="18"/>
    <interval begin="29600.00" end="29700.00" id="e1_L10189_1" nVehContrib="24" flow="864.00" occupancy="15.27" speed="10.78" length="4.62" nVehEntered="25"/>
    <interval begin="29700.00" end="29800.00" id="e1_L10189_1" nVehContrib="26" flow="936.00" occupancy="10.65" speed="10.92" length="4.62" nVehEntered="25"/>
    <interval begin="29800.00" end="29900.00" id="e1_L10189_1" nVehContrib="27" flow="972.00" occupancy="17.24" speed="9.07" length="4.62" nVehEntered="27"/>
    <interval begin="29900.00" end="30000.00" id="e1_L10189_1" nVehContrib="26" flow="936.00" occupancy="10.73" speed="11.36" length="4.62" nVehEntered="26"/>
    <interval begin="30000.00" end="30100.00" id="e1_L10189_1" nVehContrib="23" flow="828.00" occupancy="12.78" speed="10.33" length="4.62" nVehEntered="23"/>
    <interval begin="30100.00" end="30200.00" id="e1_L10189_1" nVehContrib="20" flow="720.00" occupancy="17.26" speed="8.09" length="4.62" nVehEntered="20"/>
    <interval begin="30200.00" end="30300.00" id="e1_L10189_1" nVehContrib="25" flow="900.00" occupancy="11.26" speed="11.29" length="4.62" nVehEntered="25"/>
    <interval begin="30300.00" end="30400.00" id="e1_L10189_1" nVehContrib="22" flow="792.00" occupancy="15.31" speed="9.13" length="4.62" nVehEntered="22"/>
    <interval begin="30400.00" end="30500.00" id="e1_L10189_1" nVehContrib="23" flow="828.00" occupancy="12.43" speed="10.12" length="4.62" nVehEntered="23"/>
    <interval begin="30500.00" end="30600.00" id="e1_L10189_1" nVehContrib="30" flow="1080.00" occupancy="11.76" speed="11.80" length="4.62" nVehEntered="30"/>
    <interval begin="30600.00" end="30700.00" id="e1_L10189_1" nVehContrib="20" flow="720.00" occupancy="14.45" speed="8.86" length="4.62" nVehEntered="20"/>
    <interval begin="30700.00" end="30800.00" id="e1_L10189_1" nVehContrib="28" flow="1008.00" occupancy="17.97" speed="9.30" length="4.62" nVehEntered="28"/>
    <interval begin="30800.00" end="30900.00" id="e1_L10189_1" nVehContrib="25" flow="900.00" occupancy="11.52" speed="11.31" length="4.62" nVehEntered="26"/>
    <interval begin="30900.00" end="31000.00" id="e1_L10189_1" nVehContrib="21" flow="756.00" occupancy="12.92" speed="9.40" length="4.62" nVehEntered="20"/>
    <interval begin="31000.00" end="31100.00" id="e1_L10189_1" nVehContrib="0" flow="0.00" occupancy="0.00" speed="-1.00" length="-1.00" nVehEntered="0"/>
    <interval begin="31100.00" end="31200.00" id="e1_L10189_1" nVehContrib="5" flow="180.00" occupancy="8.14" speed="3.45" length="4.62" nVehEntered="6"/>
    <interval begin="31200.00" end="31300.00" id="e1_L10189_1" nVehContrib="17" flow="612.00" occupancy="8.99" speed="10.18" length="4.62" nVehEntered="16"/>
    <interval begin="31300.00" end="31400.00" id="e1_L10189_1" nVehContrib="27" flow="972.00" occupancy="15.47" speed="10.09" length="4.62" nVehEntered="27"/>
    <interval begin="31400.00" end="31500.00" id="e1_L10189_1" nVehContrib="15" flow="540.00" occupancy="16.29" speed="7.12" length="4.62" nVehEntered="16"/>
    <interval begin="31500.00" end="31600.00" id="e1_L10189_1" nVehContrib="8" flow="288.00" occupancy="8.18" speed="5.80" length="4.62" nVehEntered="7"/>
    <interval begin="31600.00" end="31700.00" id="e1_L10189_1" nVehContrib="18" flow="648.00" occupancy="10.94" speed="10.38" length="4.62" nVehEntered="18"/>
    <interval begin="31700.00" end="31800.00" id="e1_L10189_1" nVehContrib="10" flow="360.00" occupancy="7.99" speed="8.65" length="4.62" nVehEntered="10"/>
    <interval begin="31800.00" end="31900.00" id="e1_L10189_1" nVehContrib="1" flow="36.00" occupancy="1.43" speed="3.22" length="4.62" nVehEntered