<?xml version="1.0" encoding="UTF-8"?>

<!-- generated on Sun Feb 17 15:57:00 2019 by 
<configuration xmlns:xsi="http://www.w3.org/2001/XMLSchema-instance" xsi:noNamespaceSchemaLocation="http://sumo.dlr.de/xsd/Configuration.xsd">

    <input>
        <net-file value="/home/sda/Documents/sumo-sathorn-ray/models/sathorn-morning/sathorn_w_fixed_20160404.net.xml"/>
        <route-files value="/home/sda/Documents/sumo-sathorn-ray/models/sathorn-morning/Great-route/sathorn_w_20160422edit2.rou.xml"/>
        <additional-files value="/home/sda/Documents/sumo-sathorn-ray/models/sathorn-morning/sathon_wide_tls_20160418_edited.add.xml,/home/sda/Documents/sumo-sathorn-ray/detectors/sathorn_w_detectors.add.xml"/>
    </input>

    <time>
        <begin value="21600"/>
        <end value="32400"/>
        <step-length value="1"/>
    </time>

    <processing>
        <no-internal-links value="true"/>
        <ignore-junction-blocker value="-1"/>
        <time-to-teleport value="-1"/>
        <eager-insert value="true"/>
        <time-to-impatience value="300"/>
    </processing>

    <report>
        <no-warnings value="true"/>
    </report>

    <random_number>
        <random value="false"/>
        <seed value="20"/>
    </random_number>

    <gui_only>
        <gui-settings-file value="/home/sda/Documents/sumo-sathorn-ray/gui-settings/gui-settings-file-surasak.xml"/>
        <quit-on-end value="true"/>
        <start value="true"/>
        <tracker-interval value="1"/>
    </gui_only>

</configuration>
-->

<detector xmlns:xsi="http://www.w3.org/2001/XMLSchema-instance" xsi:noNamespaceSchemaLocation="http://sumo.dlr.de/xsd/det_e2_file.xsd">
   <interval begin="21600.00" end="21700.00" id="e2_L40_3_2" sampledSeconds="0.00" nVehEntered="0" nVehLeft="0" nVehSeen="0" meanSpeed="-1.00" meanTimeLoss="-1.00" meanOccupancy="0.00" maxOccupancy="0.00" meanMaxJamLengthInVehicles="0.00" meanMaxJamLengthInMeters="0.00" maxJamLengthInVehicles="0" maxJamLengthInMeters="0.00" jamLengthInVehiclesSum="0" jamLengthInMetersSum="0.00" meanHaltingDuration="0.00" maxHaltingDuration="0.00" haltingDurationSum="0.00" meanIntervalHaltingDuration="0.00" maxIntervalHaltingDuration="0.00" intervalHaltingDurationSum="0.00" startedHalts="0.00" meanVehicleNumber="0.00" maxVehicleNumber="0" />
   <interval begin="21700.00" end="21800.00" id="e2_L40_3_2" sampledSeconds="0.00" nVehEntered="0" nVehLeft="0" nVehSeen="0" meanSpeed="-1.00" meanTimeLoss="-1.00" meanOccupancy="0.00" maxOccupancy="0.00" meanMaxJamLengthInVehicles="0.00" meanMaxJamLengthInMeters="0.00" maxJamLengthInVehicles="0" maxJamLengthInMeters="0.00" jamLengthInVehiclesSum="0" jamLengthInMetersSum="0.00" meanHaltingDuration="0.00" maxHaltingDuration="0.00" haltingDurationSum="0.00" meanIntervalHaltingDuration="0.00" maxIntervalHaltingDuration="0.00" intervalHaltingDurationSum="0.00" startedHalts="0.00" meanVehicleNumber="0.00" maxVehicleNumber="0" />
   <interval begin="21800.00" end="21900.00" id="e2_L40_3_2" sampledSeconds="0.00" nVehEntered="0" nVehLeft="0" nVehSeen="0" meanSpeed="-1.00" meanTimeLoss="-1.00" meanOccupancy="0.00" maxOccupancy="0.00" meanMaxJamLengthInVehicles="0.00" meanMaxJamLengthInMeters="0.00" maxJamLengthInVehicles="0" maxJamLengthInMeters="0.00" jamLengthInVehiclesSum="0" jamLengthInMetersSum="0.00" meanHaltingDuration="0.00" maxHaltingDuration="0.00" haltingDurationSum="0.00" meanIntervalHaltingDuration="0.00" maxIntervalHaltingDuration="0.00" intervalHaltingDurationSum="0.00" startedHalts="0.00" meanVehicleNumber="0.00" maxVehicleNumber="0" />
   <interval begin="21900.00" end="22000.00" id="e2_L40_3_2" sampledSeconds="0.00" nVehEntered="0" nVehLeft="0" nVehSeen="0" meanSpeed="-1.00" meanTimeLoss="-1.00" meanOccupancy="0.00" maxOccupancy="0.00" meanMaxJamLengthInVehicles="0.00" meanMaxJamLengthInMeters="0.00" maxJamLengthInVehicles="0" maxJamLengthInMeters="0.00" jamLengthInVehiclesSum="0" jamLengthInMetersSum="0.00" meanHaltingDuration="0.00" maxHaltingDuration="0.00" haltingDurationSum="0.00" meanIntervalHaltingDuration="0.00" maxIntervalHaltingDuration="0.00" intervalHaltingDurationSum="0.00" startedHalts="0.00" meanVehicleNumber="0.00" maxVehicleNumber="0" />
   <interval begin="22000.00" end="22100.00" id="e2_L40_3_2" sampledSeconds="32.00" nVehEntered="2" nVehLeft="2" nVehSeen="2" meanSpeed="11.87" meanTimeLoss="0.81" meanOccupancy="0.45" maxOccupancy="1.47" meanMaxJamLengthInVehicles="0.00" meanMaxJamLengthInMeters="0.00" maxJamLengthInVehicles="0" maxJamLengthInMeters="0.00" jamLengthInVehiclesSum="0" jamLengthInMetersSum="0.00" meanHaltingDuration="0.00" maxHaltingDuration="0.00" haltingDurationSum="0.00" meanIntervalHaltingDuration="0.00" maxIntervalHaltingDuration="0.00" intervalHaltingDurationSum="0.00" startedHalts="0.00" meanVehicleNumber="0.33" maxVehicleNumber="1" />
   <interval begin="22100.00" end="22200.00" id="e2_L40_3_2" sampledSeconds="0.00" nVehEntered="0" nVehLeft="0" nVehSeen="0" meanSpeed="-1.00" meanTimeLoss="-1.00" meanOccupancy="0.00" maxOccupancy="0.00" meanMaxJamLengthInVehicles="0.00" meanMaxJamLengthInMeters="0.00" maxJamLengthInVehicles="0" maxJamLengthInMeters="0.00" jamLengthInVehiclesSum="0" jamLengthInMetersSum="0.00" meanHaltingDuration="0.00" maxHaltingDuration="0.00" haltingDurationSum="0.00" meanIntervalHaltingDuration="0.00" maxIntervalHaltingDuration="0.00" intervalHaltingDurationSum="0.00" startedHalts="0.00" meanVehicleNumber="0.00" maxVehicleNumber="0" />
   <interval begin="22200.00" end="22300.00" id="e2_L40_3_2" sampledSeconds="37.88" nVehEntered="5" nVehLeft="3" nVehSeen="5" meanSpeed="8.21" meanTimeLoss="2.60" meanOccupancy="0.43" maxOccupancy="1.90" meanMaxJamLengthInVehicles="0.08" meanMaxJamLengthInMeters="0.11" maxJamLengthInVehicles="1" maxJamLengthInMeters="1.39" jamLengthInVehiclesSum="8" jamLengthInMetersSum="10.99" meanHaltingDuration="9.00" maxHaltingDuration="9.00" haltingDurationSum="9.00" meanIntervalHaltingDuration="9.00" maxIntervalHaltingDuration="9.00" intervalHaltingDurationSum="9.00" startedHalts="1.00" meanVehicleNumber="0.39" maxVehicleNumber="2" />
   <interval begin="22300.00" end="22400.00" id="e2_L40_3_2" sampledSeconds="525.00" nVehEntered="7" nVehLeft="0" nVehSeen="9" meanSpeed="0.30" meanTimeLoss="56.95" meanOccupancy="6.66" maxOccupancy="12.16" meanMaxJamLengthInVehicles="4.89" meanMaxJamLengthInMeters="31.70" maxJamLengthInVehicles="9" maxJamLengthInMeters="60.65" jamLengthInVehiclesSum="489" jamLengthInMetersSum="3169.95" meanHaltingDuration="56.22" maxHaltingDuration="109.00" haltingDurationSum="506.00" meanIntervalHaltingDuration="55.22" maxIntervalHaltingDuration="100.00" intervalHaltingDurationSum="497.00" startedHalts="8.00" meanVehicleNumber="5.25" maxVehicleNumber="9" />
   <interval begin="22400.00" end="22500.00" id="e2_L40_3_2" sampledSeconds="1286.00" nVehEntered="7" nVehLeft="0" nVehSeen="16" meanSpeed="0.21" meanTimeLoss="79.00" meanOccupancy="17.82" maxOccupancy="22.42" meanMaxJamLengthInVehicles="12.42" meanMaxJamLengthInMeters="84.47" maxJamLengthInVehicles="16" maxJamLengthInMeters="109.49" jamLengthInVehiclesSum="1242" jamLengthInMetersSum="8446.63" meanHaltingDuration="109.69" maxHaltingDuration="209.00" haltingDurationSum="1755.00" meanIntervalHaltingDuration="78.06" maxIntervalHaltingDuration="100.00" intervalHaltingDurationSum="1249.00" startedHalts="7.00" meanVehicleNumber="12.86" maxVehicleNumber="16" />
   <interval begin="22500.00" end="22600.00" id="e2_L40_3_2" sampledSeconds="2031.00" nVehEntered="8" nVehLeft="0" nVehSeen="24" meanSpeed="0.09" meanTimeLoss="84.01" meanOccupancy="28.74" maxOccupancy="34.15" meanMaxJamLengthInVehicles="19.92" meanMaxJamLengthInMeters="136.92" maxJamLengthInVehicles="24" maxJamLengthInMeters="165.55" jamLengthInVehiclesSum="1992" jamLengthInMetersSum="13691.61" meanHaltingDuration="156.46" maxHaltingDuration="309.00" haltingDurationSum="3755.00" meanIntervalHaltingDuration="83.33" maxIntervalHaltingDuration="100.00" intervalHaltingDurationSum="2000.00" startedHalts="8.00" meanVehicleNumber="20.31" maxVehicleNumber="24" />
   <interval begin="22600.00" end="22700.00" id="e2_L40_3_2" sampledSeconds="2764.00" nVehEntered="8" nVehLeft="0" nVehSeen="32" meanSpeed="0.07" meanTimeLoss="85.90" meanOccupancy="39.48" maxOccupancy="45.88" meanMaxJamLengthInVehicles="27.25" meanMaxJamLengthInMeters="188.15" maxJamLengthInVehicles="31" maxJamLengthInMeters="214.36" jamLengthInVehiclesSum="2725" jamLengthInMetersSum="18815.45" meanHaltingDuration="209.26" maxHaltingDuration="409.00" haltingDurationSum="6487.00" meanIntervalHaltingDuration="88.13" maxIntervalHaltingDuration="100.00" intervalHaltingDurationSum="2732.00" startedHalts="7.00" meanVehicleNumber="27.64" maxVehicleNumber="32" />
   <interval begin="22700.00" end="22800.00" id="e2_L40_3_2" sampledSeconds="3440.57" nVehEntered="13" nVehLeft="10" nVehSeen="45" meanSpeed="0.34" meanTimeLoss="74.34" meanOccupancy="49.58" maxOccupancy="51.74" meanMaxJamLengthInVehicles="27.98" meanMaxJamLengthInMeters="197.82" maxJamLengthInVehicles="35" maxJamLengthInMeters="251.72" jamLengthInVehiclesSum="3080" jamLengthInMetersSum="21838.90" meanHaltingDuration="71.94" maxHaltingDuration="447.00" haltingDurationSum="9208.00" meanIntervalHaltingDuration="24.45" maxIntervalHaltingDuration="95.00" intervalHaltingDurationSum="3130.00" startedHalts="99.00" meanVehicleNumber="34.45" maxVehicleNumber="36" />
   <interval begin="22800.00" end="22900.00" id="e2_L40_3_2" sampledSeconds="3914.08" nVehEntered="9" nVehLeft="1" nVehSeen="44" meanSpeed="0.13" meanTimeLoss="88.00" meanOccupancy="56.37" maxOccupancy="62.00" meanMaxJamLengthInVehicles="37.61" meanMaxJamLengthInMeters="268.44" maxJamLengthInVehicles="43" maxJamLengthInMeters="305.41" jamLengthInVehiclesSum="3790" jamLengthInMetersSum="27028.40" meanHaltingDuration="68.23" maxHaltingDuration="135.00" haltingDurationSum="4367.00" meanIntervalHaltingDuration="59.73" maxIntervalHaltingDuration="100.00" intervalHaltingDurationSum="3823.00" startedHalts="33.00" meanVehicleNumber="39.17" maxVehicleNumber="43" />
   <interval begin="22900.00" end="23000.00" id="e2_L40_3_2" sampledSeconds="4294.56" nVehEntered="4" nVehLeft="2" nVehSeen="47" meanSpeed="0.15" meanTimeLoss="90.29" meanOccupancy="61.84" maxOccupancy="64.13" meanMaxJamLengthInVehicles="35.32" meanMaxJamLengthInMeters="254.51" maxJamLengthInVehicles="45" maxJamLengthInMeters="318.43" jamLengthInVehiclesSum="4161" jamLengthInMetersSum="29916.00" meanHaltingDuration="75.97" maxHaltingDuration="226.00" haltingDurationSum="8281.00" meanIntervalHaltingDuration="38.65" maxIntervalHaltingDuration="100.00" intervalHaltingDurationSum="4213.00" startedHalts="67.00" meanVehicleNumber="42.98" maxVehicleNumber="45" />
   <interval begin="23000.00" end="23100.00" id="e2_L40_3_2" sampledSeconds="4500.00" nVehEntered="0" nVehLeft="0" nVehSeen="45" meanSpeed="0.00" meanTimeLoss="99.99" meanOccupancy="64.66" maxOccupancy="64.68" meanMaxJamLengthInVehicles="45.00" meanMaxJamLengthInMeters="318.43" maxJamLengthInVehicles="45" maxJamLengthInMeters="318.43" jamLengthInVehiclesSum="4500" jamLengthInMetersSum="31842.98" meanHaltingDuration="160.98" maxHaltingDuration="326.00" haltingDurationSum="7244.00" meanIntervalHaltingDuration="100.00" maxIntervalHaltingDuration="100.00" intervalHaltingDurationSum="4500.00" startedHalts="0.00" meanVehicleNumber="45.00" maxVehicleNumber="45" />
   <interval begin="23100.00" end="23200.00" id="e2_L40_3_2" sampledSeconds="4500.00" nVehEntered="0" nVehLeft="0" nVehSeen="45" meanSpeed="0.00" meanTimeLoss="100.00" meanOccupancy="64.68" maxOccupancy="64.68" meanMaxJamLengthInVehicles="45.00" meanMaxJamLengthInMeters="318.43" maxJamLengthInVehicles="45" maxJamLengthInMeters="318.43" jamLengthInVehiclesSum="4500" jamLengthInMetersSum="31842.98" meanHaltingDuration="260.98" maxHaltingDuration="426.00" haltingDurationSum="11744.00" meanIntervalHaltingDuration="100.00" maxIntervalHaltingDuration="100.00" intervalHaltingDurationSum="4500.00" startedHalts="0.00" meanVehicleNumber="45.00" maxVehicleNumber="45" />
   <interval begin="23200.00" end="23300.00" id="e2_L40_3_2" sampledSeconds="4500.00" nVehEntered="0" nVehLeft="0" nVehSeen="45" meanSpeed="0.00" meanTimeLoss="100.00" meanOccupancy="64.68" maxOccupancy="64.68" meanMaxJamLengthInVehicles="45.00" meanMaxJamLengthInMeters="318.43" maxJamLengthInVehicles="45" maxJamLengthInMeters="318.43" jamLengthInVehiclesSum="4500" jamLengthInMetersSum="31842.98" meanHaltingDuration="360.98" maxHaltingDuration="526.00" haltingDurationSum="16244.00" meanIntervalHaltingDuration="100.00" maxIntervalHaltingDuration="100.00" intervalHaltingDurationSum="4500.00" startedHalts="0.00" meanVehicleNumber="45.00" maxVehicleNumber="45" />
   <interval begin="23300.00" end="23400.00" id="e2_L40_3_2" sampledSeconds="4469.52" nVehEntered="0" nVehLeft="1" nVehSeen="45" meanSpeed="0.02" meanTimeLoss="99.20" meanOccupancy="64.54" maxOccupancy="64.68" meanMaxJamLengthInVehicles="44.70" meanMaxJamLengthInMeters="317.35" maxJamLengthInVehicles="45" maxJamLengthInMeters="319.92" jamLengthInVehiclesSum="4470" jamLengthInMetersSum="31734.56" meanHaltingDuration="460.66" maxHaltingDuration="626.00" haltingDurationSum="20269.00" meanIntervalHaltingDuration="100.00" maxIntervalHaltingDuration="100.00" intervalHaltingDurationSum="4400.00" startedHalts="0.00" meanVehicleNumber="44.70" maxVehicleNumber="45" />
   <interval begin="23400.00" end="23500.00" id="e2_L40_3_2" sampledSeconds="4400.00" nVehEntered="0" nVehLeft="0" nVehSeen="44" meanSpeed="0.05" meanTimeLoss="99.56" meanOccupancy="63.54" maxOccupancy="64.25" meanMaxJamLengthInVehicles="44.00" meanMaxJamLengthInMeters="315.70" maxJamLengthInVehicles="44" maxJamLengthInMeters="318.43" jamLengthInVehiclesSum="4400" jamLengthInMetersSum="31570.48" meanHaltingDuration="560.66" maxHaltingDuration="726.00" haltingDurationSum="24669.00" meanIntervalHaltingDuration="100.00" maxIntervalHaltingDuration="100.00" intervalHaltingDurationSum="4400.00" startedHalts="0.00" meanVehicleNumber="44.00" maxVehicleNumber="44" />
   <interval begin="23500.00" end="23600.00" id="e2_L40_3_2" sampledSeconds="4400.00" nVehEntered="0" nVehLeft="0" nVehSeen="44" meanSpeed="0.00" meanTimeLoss="100.00" meanOccupancy="63.47" maxOccupancy="63.47" meanMaxJamLengthInVehicles="44.00" meanMaxJamLengthInMeters="312.23" maxJamLengthInVehicles="44" maxJamLengthInMeters="312.25" jamLengthInVehiclesSum="4400" jamLengthInMetersSum="31222.59" meanHaltingDuration="660.66" maxHaltingDuration="826.00" haltingDurationSum="29069.00" meanIntervalHaltingDuration="100.00" maxIntervalHaltingDuration="100.00" intervalHaltingDurationSum="4400.00" startedHalts="0.00" meanVehicleNumber="44.00" maxVehicleNumber="44" />
   <interval begin="23600.00" end="23700.00" id="e2_L40_3_2" sampledSeconds="4400.00" nVehEntered="0" nVehLeft="0" nVehSeen="44" meanSpeed="0.00" meanTimeLoss="100.00" meanOccupancy="63.47" maxOccupancy="63.47" meanMaxJamLengthInVehicles="44.00" meanMaxJamLengthInMeters="312.23" maxJamLengthInVehicles="44" maxJamLengthInMeters="312.23" jamLengthInVehiclesSum="4400" jamLengthInMetersSum="31222.50" meanHaltingDuration="760.66" maxHaltingDuration="926.00" haltingDurationSum="33469.00" meanIntervalHaltingDuration="100.00" maxIntervalHaltingDuration="100.00" intervalHaltingDurationSum="4400.00" startedHalts="0.00" meanVehicleNumber="44.00" maxVehicleNumber="44" />
   <interval begin="23700.00" end="23800.00" id="e2_L40_3_2" sampledSeconds="4400.00" nVehEntered="0" nVehLeft="0" nVehSeen="44" meanSpeed="0.00" meanTimeLoss="100.00" meanOccupancy="63.47" maxOccupancy="63.47" meanMaxJamLengthInVehicles="44.00" meanMaxJamLengthInMeters="312.23" maxJamLengthInVehicles="44" maxJamLengthInMeters="312.23" jamLengthInVehiclesSum="4400" jamLengthInMetersSum="31222.50" meanHaltingDuration="860.66" maxHaltingDuration="1026.00" haltingDurationSum="37869.00" meanIntervalHaltingDuration="100.00" maxIntervalHaltingDuration="100.00" intervalHaltingDurationSum="4400.00" startedHalts="0.00" meanVehicleNumber="44.00" maxVehicleNumber="44" />
   <interval begin="23800.00" end="23900.00" id="e2_L40_3_2" sampledSeconds="4400.00" nVehEntered="0" nVehLeft="0" nVehSeen="44" meanSpeed="0.00" meanTimeLoss="100.00" meanOccupancy="63.47" maxOccupancy="63.47" meanMaxJamLengthInVehicles="44.00" meanMaxJamLengthInMeters="312.23" maxJamLengthInVehicles="44" maxJamLengthInMeters="312.23" jamLengthInVehiclesSum="4400" jamLengthInMetersSum="31222.50" meanHaltingDuration="960.66" maxHaltingDuration="1126.00" haltingDurationSum="42269.00" meanIntervalHaltingDuration="100.00" maxIntervalHaltingDuration="100.00" intervalHaltingDurationSum="4400.00" startedHalts="0.00" meanVehicleNumber="44.00" maxVehicleNumber="44" />
   <interval begin="23900.00" end="24000.00" id="e2_L40_3_2" sampledSeconds="4400.00" nVehEntered="0" nVehLeft="0" nVehSeen="44" meanSpeed="0.00" meanTimeLoss="100.00" meanOccupancy="63.47" maxOccupancy="63.47" meanMaxJamLengthInVehicles="44.00" meanMaxJamLengthInMeters="312.23" maxJamLengthInVehicles="44" maxJamLengthInMeters="312.23" jamLengthInVehiclesSum="4400" jamLengthInMetersSum="31222.50" meanHaltingDuration="1060.66" maxHaltingDuration="1226.00" haltingDurationSum="46669.00" meanIntervalHaltingDuration="100.00" maxIntervalHaltingDuration="100.00" intervalHaltingDurationSum="4400.00" startedHalts="0.00" meanVehicleNumber="44.00" maxVehicleNumber="44" />
   <interval begin="24000.00" end="24100.00" id="e2_L40_3_2" sampledSeconds="4400.00" nVehEntered="0" nVehLeft="0" nVehSeen="44" meanSpeed="0.00" meanTimeLoss="100.00" meanOccupancy="63.47" maxOccupancy="63.47" meanMaxJamLengthInVehicles="44.00" meanMaxJamLengthInMeters="312.23" maxJamLengthInVehicles="44" maxJamLengthInMeters="312.23" jamLengthInVehiclesSum="4400" jamLengthInMetersSum="31222.50" meanHaltingDuration="1160.66" maxHaltingDuration="1326.00" haltingDurationSum="51069.00" meanIntervalHaltingDuration="100.00" maxIntervalHaltingDuration="100.00" intervalHaltingDurationSum="4400.00" startedHalts="0.00" meanVehicleNumber="44.00" maxVehicleNumber="44" />
   <interval begin="24100.00" end="24200.00" id="e2_L40_3_2" sampledSeconds="4400.00" nVehEntered="0" nVehLeft="0" nVehSeen="44" meanSpeed="0.00" meanTimeLoss="100.00" meanOccupancy="63.47" maxOccupancy="63.47" meanMaxJamLengthInVehicles="44.00" meanMaxJamLengthInMeters="312.23" maxJamLengthInVehicles="44" maxJamLengthInMeters="312.23" jamLengthInVehiclesSum="4400" jamLengthInMetersSum="31222.50" meanHaltingDuration="1260.66" maxHaltingDuration="1426.00" haltingDurationSum="55469.00" meanIntervalHaltingDuration="100.00" maxIntervalHaltingDuration="100.00" intervalHaltingDurationSum="4400.00" startedHalts="0.00" meanVehicleNumber="44.00" maxVehicleNumber="44" />
   <interval begin="24200.00" end="24300.00" id="e2_L40_3_2" sampledSeconds="4400.00" nVehEntered="0" nVehLeft="0" nVehSeen="44" meanSpeed="0.00" meanTimeLoss="100.00" meanOccupancy="63.47" maxOccupancy="63.47" meanMaxJamLengthInVehicles="44.00" meanMaxJamLengthInMeters="312.23" maxJamLengthInVehicles="44" maxJamLengthInMeters="312.23" jamLengthInVehiclesSum="4400" jamLengthInMetersSum="31222.50" meanHaltingDuration="1360.66" maxHaltingDuration="1526.00" haltingDurationSum="59869.00" meanIntervalHaltingDuration="100.00" maxIntervalHaltingDuration="100.00" intervalHaltingDurationSum="4400.00" startedHalts="0.00" meanVehicleNumber="44.00" maxVehicleNumber="44" />
   <interval begin="24300.00" end="24400.00" id="e2_L40_3_2" sampledSeconds="4396.29" nVehEntered="0" nVehLeft="1" nVehSeen="44" meanSpeed="0.00" meanTimeLoss="99.90" meanOccupancy="63.44" maxOccupancy="63.47" meanMaxJamLengthInVehicles="43.97" meanMaxJamLengthInMeters="312.12" maxJamLengthInVehicles="44" maxJamLengthInMeters="313.84" jamLengthInVehiclesSum="4397" jamLengthInMetersSum="31211.76" meanHaltingDuration="1456.81" maxHaltingDuration="1596.00" haltingDurationSum="62643.00" meanIntervalHaltingDuration="100.00" maxIntervalHaltingDuration="100.00" intervalHaltingDurationSum="4300.00" startedHalts="0.00" meanVehicleNumber="43.97" maxVehicleNumber="44" />
   <interval begin="24400.00" end="24500.00" id="e2_L40_3_2" sampledSeconds="4258.69" nVehEntered="1" nVehLeft="1" nVehSeen="44" meanSpeed="0.10" meanTimeLoss="96.01" meanOccupancy="61.53" maxOccupancy="63.03" meanMaxJamLengthInVehicles="42.37" meanMaxJamLengthInMeters="308.35" maxJamLengthInVehicles="43" maxJamLengthInMeters="313.71" jamLengthInVehiclesSum="4258" jamLengthInMetersSum="30980.70" meanHaltingDuration="1520.74" maxHaltingDuration="1696.00" haltingDurationSum="65392.00" meanIntervalHaltingDuration="98.19" maxIntervalHaltingDuration="100.00" intervalHaltingDurationSum="4222.00" startedHalts="1.00" meanVehicleNumber="42.59" maxVehicleNumber="43" />
   <interval begin="24500.00" end="24600.00" id="e2_L40_3_2" sampledSeconds="4462.71" nVehEntered="2" nVehLeft="0" nVehSeen="45" meanSpeed="0.01" meanTimeLoss="99.13" meanOccupancy="64.18" maxOccupancy="64.68" meanMaxJamLengthInVehicles="44.59" meanMaxJamLengthInMeters="316.01" maxJamLengthInVehicles="45" maxJamLengthInMeters="318.43" jamLengthInVehiclesSum="4459" jamLengthInMetersSum="31601.40" meanHaltingDuration="1552.29" maxHaltingDuration="1796.00" haltingDurationSum="69853.00" meanIntervalHaltingDuration="99.13" maxIntervalHaltingDuration="100.00" intervalHaltingDurationSum="4461.00" startedHalts="2.00" meanVehicleNumber="44.63" maxVehicleNumber="45" />
   <interval begin="24600.00" end="24700.00" id="e2_L40_3_2" sampledSeconds="4500.00" nVehEntered="0" nVehLeft="0" nVehSeen="45" meanSpeed="0.00" meanTimeLoss="100.00" meanOccupancy="64.68" maxOccupancy="64.68" meanMaxJamLengthInVehicles="45.00" meanMaxJamLengthInMeters="318.43" maxJamLengthInVehicles="45" maxJamLengthInMeters="318.43" jamLengthInVehiclesSum="4500" jamLengthInMetersSum="31843.00" meanHaltingDuration="1652.29" maxHaltingDuration="1896.00" haltingDurationSum="74353.00" meanIntervalHaltingDuration="100.00" maxIntervalHaltingDuration="100.00" intervalHaltingDurationSum="4500.00" startedHalts="0.00" meanVehicleNumber="45.00" maxVehicleNumber="45" />
   <interval begin="24700.00" end="24800.00" id="e2_L40_3_2" sampledSeconds="4500.00" nVehEntered="0" nVehLeft="0" nVehSeen="45" meanSpeed="0.00" meanTimeLoss="100.00" meanOccupancy="64.68" maxOccupancy="64.68" meanMaxJamLengthInVehicles="45.00" meanMaxJamLengthInMeters="318.43" maxJamLengthInVehicles="45" maxJamLengthInMeters="318.43" jamLengthInVehiclesSum="4500" jamLengthInMetersSum="31843.00" meanHaltingDuration="1752.29" maxHaltingDuration="1996.00" haltingDurationSum="78853.00" meanIntervalHaltingDuration="100.00" maxIntervalHaltingDuration="100.00" intervalHaltingDurationSum="4500.00" startedHalts="0.00" meanVehicleNumber="45.00" maxVehicleNumber="45" />
   <interval begin="24800.00" end="24900.00" id="e2_L40_3_2" sampledSeconds="4426.01" nVehEntered="1" nVehLeft="1" nVehSeen="46" meanSpeed="0.07" meanTimeLoss="95.66" meanOccupancy="63.45" maxOccupancy="64.68" meanMaxJamLengthInVehicles="42.37" meanMaxJamLengthInMeters="304.87" maxJamLengthInVehicles="45" maxJamLengthInMeters="319.96" jamLengthInVehiclesSum="4408" jamLengthInMetersSum="31646.51" meanHaltingDuration="1507.02" maxHaltingDuration="2084.00" haltingDurationSum="81379.00" meanIntervalHaltingDuration="81.48" maxIntervalHaltingDuration="100.00" intervalHaltingDurationSum="4400.00" startedHalts="10.00" meanVehicleNumber="44.27" maxVehicleNumber="45" />
   <interval begin="24900.00" end="25000.00" id="e2_L40_3_2" sampledSeconds="4500.00" nVehEntered="0" nVehLeft="0" nVehSeen="45" meanSpeed="0.01" meanTimeLoss="99.95" meanOccupancy="64.55" maxOccupancy="64.68" meanMaxJamLengthInVehicles="45.00" meanMaxJamLengthInMeters="319.15" maxJamLengthInVehicles="45" maxJamLengthInMeters="319.15" jamLengthInVehiclesSum="4500" jamLengthInMetersSum="31914.72" meanHaltingDuration="1524.60" maxHaltingDuration="2184.00" haltingDurationSum="68607.00" meanIntervalHaltingDuration="100.00" maxIntervalHaltingDuration="100.00" intervalHaltingDurationSum="4500.00" startedHalts="0.00" meanVehicleNumber="45.00" maxVehicleNumber="45" />
   <interval begin="25000.00" end="25100.00" id="e2_L40_3_2" sampledSeconds="4500.00" nVehEntered="0" nVehLeft="0" nVehSeen="45" meanSpeed="0.00" meanTimeLoss="100.00" meanOccupancy="64.68" maxOccupancy="64.68" meanMaxJamLengthInVehicles="45.00" meanMaxJamLengthInMeters="319.15" maxJamLengthInVehicles="45" maxJamLengthInMeters="319.15" jamLengthInVehiclesSum="4500" jamLengthInMetersSum="31914.72" meanHaltingDuration="1624.60" maxHaltingDuration="2284.00" haltingDurationSum="73107.00" meanIntervalHaltingDuration="100.00" maxIntervalHaltingDuration="100.00" intervalHaltingDurationSum="4500.00" startedHalts="0.00" meanVehicleNumber="45.00" maxVehicleNumber="45" />
   <interval begin="25100.00" end="25200.00" id="e2_L40_3_2" sampledSeconds="4494.98" nVehEntered="0" nVehLeft="1" nVehSeen="45" meanSpeed="0.00" meanTimeLoss="99.88" meanOccupancy="64.67" maxOccupancy="64.68" meanMaxJamLengthInVehicles="44.95" meanMaxJamLengthInMeters="318.86" maxJamLengthInVehicles="45" maxJamLengthInMeters="319.81" jamLengthInVehiclesSum="4495" jamLengthInMetersSum="31886.49" meanHaltingDuration="1712.18" maxHaltingDuration="2384.00" haltingDurationSum="75336.00" meanIntervalHaltingDuration="100.00" maxIntervalHaltingDuration="100.00" intervalHaltingDurationSum="4400.00" startedHalts="0.00" meanVehicleNumber="44.95" maxVehicleNumber="45" />
   <interval begin="25200.00" end="25300.00" id="e2_L40_3_2" sampledSeconds="4428.82" nVehEntered="1" nVehLeft="0" nVehSeen="45" meanSpeed="0.05" meanTimeLoss="98.05" meanOccupancy="64.12" maxOccupancy="64.65" meanMaxJamLengthInVehicles="44.28" meanMaxJamLengthInMeters="316.63" maxJamLengthInVehicles="45" maxJamLengthInMeters="316.94" jamLengthInVehiclesSum="4428" jamLengthInMetersSum="31662.67" meanHaltingDuration="1772.56" maxHaltingDuration="2484.00" haltingDurationSum="79765.00" meanIntervalHaltingDuration="98.42" maxIntervalHaltingDuration="100.00" intervalHaltingDurationSum="4429.00" startedHalts="1.00" meanVehicleNumber="44.29" maxVehicleNumber="45" />
   <interval begin="25300.00" end="25400.00" id="e2_L40_3_2" sampledSeconds="4500.00" nVehEntered="0" nVehLeft="0" nVehSeen="45" meanSpeed="0.00" meanTimeLoss="100.00" meanOccupancy="64.65" maxOccupancy="64.65" meanMaxJamLengthInVehicles="45.00" meanMaxJamLengthInMeters="316.94" maxJamLengthInVehicles="45" maxJamLengthInMeters="316.94" jamLengthInVehiclesSum="4500" jamLengthInMetersSum="31693.84" meanHaltingDuration="1872.56" maxHaltingDuration="2584.00" haltingDurationSum="84265.00" meanIntervalHaltingDuration="100.00" maxIntervalHaltingDuration="100.00" intervalHaltingDurationSum="4500.00" startedHalts="0.00" meanVehicleNumber="45.00" maxVehicleNumber="45" />
   <interval begin="25400.00" end="25500.00" id="e2_L40_3_2" sampledSeconds="4500.00" nVehEntered="0" nVehLeft="0" nVehSeen="45" meanSpeed="0.00" meanTimeLoss="100.00" meanOccupancy="64.65" maxOccupancy="64.65" meanMaxJamLengthInVehicles="45.00" meanMaxJamLengthInMeters="316.94" maxJamLengthInVehicles="45" maxJamLengthInMeters="316.94" jamLengthInVehiclesSum="4500" jamLengthInMetersSum="31693.84" meanHaltingDuration="1972.56" maxHaltingDuration="2684.00" haltingDurationSum="88765.00" meanIntervalHaltingDuration="100.00" maxIntervalHaltingDuration="100.00" intervalHaltingDurationSum="4500.00" startedHalts="0.00" meanVehicleNumber="45.00" maxVehicleNumber="45" />
   <interval begin="25500.00" end="25600.00" id="e2_L40_3_2" sampledSeconds="4500.00" nVehEntered="0" nVehLeft="0" nVehSeen="45" meanSpeed="0.00" meanTimeLoss="100.00" meanOccupancy="64.65" maxOccupancy="64.65" meanMaxJamLengthInVehicles="45.00" meanMaxJamLengthInMeters="316.94" maxJamLengthInVehicles="45" maxJamLengthInMeters="316.94" jamLengthInVehiclesSum="4500" jamLengthInMetersSum="31693.84" meanHaltingDuration="2072.55" maxHaltingDuration="2784.00" haltingDurationSum="93265.00" meanIntervalHaltingDuration="100.00" maxIntervalHaltingDuration="100.00" intervalHaltingDurationSum="4500.00" startedHalts="0.00" meanVehicleNumber="45.00" maxVehicleNumber="45" />
   <interval begin="25600.00" end="25700.00" id="e2_L40_3_2" sampledSeconds="4500.00" nVehEntered="0" nVehLeft="0" nVehSeen="45" meanSpeed="0.00" meanTimeLoss="100.00" meanOccupancy="64.65" maxOccupancy="64.65" meanMaxJamLengthInVehicles="45.00" meanMaxJamLengthInMeters="316.94" maxJamLengthInVehicles="45" maxJamLengthInMeters="316.94" jamLengthInVehiclesSum="4500" jamLengthInMetersSum="31693.84" meanHaltingDuration="2172.55" maxHaltingDuration="2884.00" haltingDurationSum="97765.00" meanIntervalHaltingDuration="100.00" maxIntervalHaltingDuration="100.00" intervalHaltingDurationSum="4500.00" startedHalts="0.00" meanVehicleNumber="45.00" maxVehicleNumber="45" />
   <interval begin="25700.00" end="25800.00" id="e2_L40_3_2" sampledSeconds="4500.00" nVehEntered="0" nVehLeft="0" nVehSeen="45" meanSpeed="0.00" meanTimeLoss="100.00" meanOccupancy="64.65" maxOccupancy="64.65" meanMaxJamLengthInVehicles="45.00" meanMaxJamLengthInMeters="316.94" maxJamLengthInVehicles="45" maxJamLengthInMeters="316.94" jamLengthInVehiclesSum="4500" jamLengthInMetersSum="31693.84" meanHaltingDuration="2272.55" maxHaltingDuration="2984.00" haltingDurationSum="102265.00" meanIntervalHaltingDuration="100.00" maxIntervalHaltingDuration="100.00" intervalHaltingDurationSum="4500.00" startedHalts="0.00" meanVehicleNumber="45.00" maxVehicleNumber="45" />