<?xml version="1.0" encoding="UTF-8"?>

<!-- generated on Sun Feb 17 15:57:00 2019 by 
<configuration xmlns:xsi="http://www.w3.org/2001/XMLSchema-instance" xsi:noNamespaceSchemaLocation="http://sumo.dlr.de/xsd/Configuration.xsd">

    <input>
        <net-file value="/home/sda/Documents/sumo-sathorn-ray/models/sathorn-morning/sathorn_w_fixed_20160404.net.xml"/>
        <route-files value="/home/sda/Documents/sumo-sathorn-ray/models/sathorn-morning/Great-route/sathorn_w_20160422edit2.rou.xml"/>
        <additional-files value="/home/sda/Documents/sumo-sathorn-ray/models/sathorn-morning/sathon_wide_tls_20160418_edited.add.xml,/home/sda/Documents/sumo-sathorn-ray/detectors/sathorn_w_detectors.add.xml"/>
    </input>

    <time>
        <begin value="21600"/>
        <end value="32400"/>
        <step-length value="1"/>
    </time>

    <processing>
        <no-internal-links value="true"/>
        <ignore-junction-blocker value="-1"/>
        <time-to-teleport value="-1"/>
        <eager-insert value="true"/>
        <time-to-impatience value="300"/>
    </processing>

    <report>
        <no-warnings value="true"/>
    </report>

    <random_number>
        <random value="false"/>
        <seed value="20"/>
    </random_number>

    <gui_only>
        <gui-settings-file value="/home/sda/Documents/sumo-sathorn-ray/gui-settings/gui-settings-file-surasak.xml"/>
        <quit-on-end value="true"/>
        <start value="true"/>
        <tracker-interval value="1"/>
    </gui_only>

</configuration>
-->

<detector xmlns:xsi="http://www.w3.org/2001/XMLSchema-instance" xsi:noNamespaceSchemaLocation="http://sumo.dlr.de/xsd/det_e2_file.xsd">
   <interval begin="21600.00" end="21700.00" id="e2_L40273_1_4" sampledSeconds="0.00" nVehEntered="0" nVehLeft="0" nVehSeen="0" meanSpeed="-1.00" meanTimeLoss="-1.00" meanOccupancy="0.00" maxOccupancy="0.00" meanMaxJamLengthInVehicles="0.00" meanMaxJamLengthInMeters="0.00" maxJamLengthInVehicles="0" maxJamLengthInMeters="0.00" jamLengthInVehiclesSum="0" jamLengthInMetersSum="0.00" meanHaltingDuration="0.00" maxHaltingDuration="0.00" haltingDurationSum="0.00" meanIntervalHaltingDuration="0.00" maxIntervalHaltingDuration="0.00" intervalHaltingDurationSum="0.00" startedHalts="0.00" meanVehicleNumber="0.00" maxVehicleNumber="0" />
   <interval begin="21700.00" end="21800.00" id="e2_L40273_1_4" sampledSeconds="0.00" nVehEntered="0" nVehLeft="0" nVehSeen="0" meanSpeed="-1.00" meanTimeLoss="-1.00" meanOccupancy="0.00" maxOccupancy="0.00" meanMaxJamLengthInVehicles="0.00" meanMaxJamLengthInMeters="0.00" maxJamLengthInVehicles="0" maxJamLengthInMeters="0.00" jamLengthInVehiclesSum="0" jamLengthInMetersSum="0.00" meanHaltingDuration="0.00" maxHaltingDuration="0.00" haltingDurationSum="0.00" meanIntervalHaltingDuration="0.00" maxIntervalHaltingDuration="0.00" intervalHaltingDurationSum="0.00" startedHalts="0.00" meanVehicleNumber="0.00" maxVehicleNumber="0" />
   <interval begin="21800.00" end="21900.00" id="e2_L40273_1_4" sampledSeconds="25.12" nVehEntered="6" nVehLeft="6" nVehSeen="6" meanSpeed="10.68" meanTimeLoss="0.61" meanOccupancy="1.51" maxOccupancy="7.21" meanMaxJamLengthInVehicles="0.00" meanMaxJamLengthInMeters="0.00" maxJamLengthInVehicles="0" maxJamLengthInMeters="0.00" jamLengthInVehiclesSum="0" jamLengthInMetersSum="0.00" meanHaltingDuration="0.00" maxHaltingDuration="0.00" haltingDurationSum="0.00" meanIntervalHaltingDuration="0.00" maxIntervalHaltingDuration="0.00" intervalHaltingDurationSum="0.00" startedHalts="0.00" meanVehicleNumber="0.28" maxVehicleNumber="2" />
   <interval begin="21900.00" end="22000.00" id="e2_L40273_1_4" sampledSeconds="17.69" nVehEntered="4" nVehLeft="4" nVehSeen="4" meanSpeed="10.79" meanTimeLoss="0.56" meanOccupancy="1.08" maxOccupancy="7.21" meanMaxJamLengthInVehicles="0.00" meanMaxJamLengthInMeters="0.00" maxJamLengthInVehicles="0" maxJamLengthInMeters="0.00" jamLengthInVehiclesSum="0" jamLengthInMetersSum="0.00" meanHaltingDuration="0.00" maxHaltingDuration="0.00" haltingDurationSum="0.00" meanIntervalHaltingDuration="0.00" maxIntervalHaltingDuration="0.00" intervalHaltingDurationSum="0.00" startedHalts="0.00" meanVehicleNumber="0.19" maxVehicleNumber="1" />
   <interval begin="22000.00" end="22100.00" id="e2_L40273_1_4" sampledSeconds="12.72" nVehEntered="3" nVehLeft="3" nVehSeen="3" meanSpeed="11.36" meanTimeLoss="0.39" meanOccupancy="0.75" maxOccupancy="7.21" meanMaxJamLengthInVehicles="0.00" meanMaxJamLengthInMeters="0.00" maxJamLengthInVehicles="0" maxJamLengthInMeters="0.00" jamLengthInVehiclesSum="0" jamLengthInMetersSum="0.00" meanHaltingDuration="0.00" maxHaltingDuration="0.00" haltingDurationSum="0.00" meanIntervalHaltingDuration="0.00" maxIntervalHaltingDuration="0.00" intervalHaltingDurationSum="0.00" startedHalts="0.00" meanVehicleNumber="0.15" maxVehicleNumber="1" />
   <interval begin="22100.00" end="22200.00" id="e2_L40273_1_4" sampledSeconds="8.16" nVehEntered="3" nVehLeft="3" nVehSeen="3" meanSpeed="11.21" meanTimeLoss="0.28" meanOccupancy="0.43" maxOccupancy="7.21" meanMaxJamLengthInVehicles="0.00" meanMaxJamLengthInMeters="0.00" maxJamLengthInVehicles="0" maxJamLengthInMeters="0.00" jamLengthInVehiclesSum="0" jamLengthInMetersSum="0.00" meanHaltingDuration="0.00" maxHaltingDuration="0.00" haltingDurationSum="0.00" meanIntervalHaltingDuration="0.00" maxIntervalHaltingDuration="0.00" intervalHaltingDurationSum="0.00" startedHalts="0.00" meanVehicleNumber="0.09" maxVehicleNumber="1" />
   <interval begin="22200.00" end="22300.00" id="e2_L40273_1_4" sampledSeconds="28.85" nVehEntered="5" nVehLeft="5" nVehSeen="5" meanSpeed="7.54" meanTimeLoss="2.28" meanOccupancy="1.77" maxOccupancy="7.21" meanMaxJamLengthInVehicles="0.02" meanMaxJamLengthInMeters="0.08" maxJamLengthInVehicles="1" maxJamLengthInMeters="4.62" jamLengthInVehiclesSum="2" jamLengthInMetersSum="8.46" meanHaltingDuration="3.00" maxHaltingDuration="3.00" haltingDurationSum="3.00" meanIntervalHaltingDuration="3.00" maxIntervalHaltingDuration="3.00" intervalHaltingDurationSum="3.00" startedHalts="1.00" meanVehicleNumber="0.31" maxVehicleNumber="1" />
   <interval begin="22300.00" end="22400.00" id="e2_L40273_1_4" sampledSeconds="69.38" nVehEntered="15" nVehLeft="14" nVehSeen="15" meanSpeed="6.56" meanTimeLoss="2.20" meanOccupancy="4.11" maxOccupancy="14.42" meanMaxJamLengthInVehicles="0.00" meanMaxJamLengthInMeters="0.00" maxJamLengthInVehicles="0" maxJamLengthInMeters="0.00" jamLengthInVehiclesSum="0" jamLengthInMetersSum="0.00" meanHaltingDuration="1.00" maxHaltingDuration="1.00" haltingDurationSum="2.00" meanIntervalHaltingDuration="1.00" maxIntervalHaltingDuration="1.00" intervalHaltingDurationSum="2.00" startedHalts="2.00" meanVehicleNumber="0.77" maxVehicleNumber="2" />
   <interval begin="22400.00" end="22500.00" id="e2_L40273_1_4" sampledSeconds="398.78" nVehEntered="22" nVehLeft="22" nVehSeen="23" meanSpeed="1.49" meanTimeLoss="15.27" meanOccupancy="28.43" maxOccupancy="50.48" meanMaxJamLengthInVehicles="2.62" meanMaxJamLengthInMeters="16.63" maxJamLengthInVehicles="6" maxJamLengthInMeters="39.88" jamLengthInVehiclesSum="262" jamLengthInMetersSum="1662.75" meanHaltingDuration="21.00" maxHaltingDuration="63.00" haltingDurationSum="273.00" meanIntervalHaltingDuration="20.92" maxIntervalHaltingDuration="62.00" intervalHaltingDurationSum="272.00" startedHalts="15.00" meanVehicleNumber="3.99" maxVehicleNumber="7" />
   <interval begin="22500.00" end="22600.00" id="e2_L40273_1_4" sampledSeconds="326.28" nVehEntered="24" nVehLeft="18" nVehSeen="25" meanSpeed="1.12" meanTimeLoss="11.87" meanOccupancy="23.25" maxOccupancy="50.48" meanMaxJamLengthInVehicles="2.48" meanMaxJamLengthInMeters="15.56" maxJamLengthInVehicles="7" maxJamLengthInMeters="46.64" jamLengthInVehiclesSum="248" jamLengthInMetersSum="1555.59" meanHaltingDuration="24.90" maxHaltingDuration="68.00" haltingDurationSum="249.00" meanIntervalHaltingDuration="24.90" maxIntervalHaltingDuration="68.00" intervalHaltingDurationSum="249.00" startedHalts="15.00" meanVehicleNumber="3.27" maxVehicleNumber="7" />
   <interval begin="22600.00" end="22700.00" id="e2_L40273_1_4" sampledSeconds="369.44" nVehEntered="12" nVehLeft="18" nVehSeen="19" meanSpeed="1.37" meanTimeLoss="17.30" meanOccupancy="25.53" maxOccupancy="64.91" meanMaxJamLengthInVehicles="2.29" meanMaxJamLengthInMeters="14.90" maxJamLengthInVehicles="8" maxJamLengthInMeters="54.60" jamLengthInVehiclesSum="229" jamLengthInMetersSum="1489.91" meanHaltingDuration="27.00" maxHaltingDuration="93.00" haltingDurationSum="486.00" meanIntervalHaltingDuration="13.33" maxIntervalHaltingDuration="32.00" intervalHaltingDurationSum="240.00" startedHalts="14.00" meanVehicleNumber="3.74" maxVehicleNumber="9" />
   <interval begin="22700.00" end="22800.00" id="e2_L40273_1_4" sampledSeconds="402.61" nVehEntered="16" nVehLeft="15" nVehSeen="17" meanSpeed="0.71" meanTimeLoss="22.33" meanOccupancy="24.85" maxOccupancy="45.72" meanMaxJamLengthInVehicles="3.45" meanMaxJamLengthInMeters="21.80" maxJamLengthInVehicles="6" maxJamLengthInMeters="41.45" jamLengthInVehiclesSum="345" jamLengthInMetersSum="2179.94" meanHaltingDuration="37.40" maxHaltingDuration="68.00" haltingDurationSum="187.00" meanIntervalHaltingDuration="37.40" maxIntervalHaltingDuration="68.00" intervalHaltingDurationSum="187.00" startedHalts="7.00" meanVehicleNumber="4.04" maxVehicleNumber="7" />
   <interval begin="22800.00" end="22900.00" id="e2_L40273_1_4" sampledSeconds="113.62" nVehEntered="11" nVehLeft="11" nVehSeen="13" meanSpeed="2.67" meanTimeLoss="6.86" meanOccupancy="7.65" maxOccupancy="21.64" meanMaxJamLengthInVehicles="0.56" meanMaxJamLengthInMeters="2.86" maxJamLengthInVehicles="2" maxJamLengthInMeters="11.93" jamLengthInVehiclesSum="56" jamLengthInMetersSum="286.00" meanHaltingDuration="9.17" maxHaltingDuration="31.00" haltingDurationSum="55.00" meanIntervalHaltingDuration="9.17" maxIntervalHaltingDuration="31.00" intervalHaltingDurationSum="55.00" startedHalts="8.00" meanVehicleNumber="1.16" maxVehicleNumber="3" />
   <interval begin="22900.00" end="23000.00" id="e2_L40273_1_4" sampledSeconds="237.29" nVehEntered="13" nVehLeft="15" nVehSeen="15" meanSpeed="1.56" meanTimeLoss="13.81" meanOccupancy="16.68" maxOccupancy="43.27" meanMaxJamLengthInVehicles="1.68" meanMaxJamLengthInMeters="10.69" maxJamLengthInVehicles="5" maxJamLengthInMeters="34.60" jamLengthInVehiclesSum="168" jamLengthInMetersSum="1068.55" meanHaltingDuration="36.33" maxHaltingDuration="75.00" haltingDurationSum="218.00" meanIntervalHaltingDuration="28.67" maxIntervalHaltingDuration="46.00" intervalHaltingDurationSum="172.00" startedHalts="5.00" meanVehicleNumber="2.40" maxVehicleNumber="6" />
   <interval begin="23000.00" end="23100.00" id="e2_L40273_1_4" sampledSeconds="140.73" nVehEntered="13" nVehLeft="10" nVehSeen="13" meanSpeed="1.68" meanTimeLoss="9.36" meanOccupancy="9.58" maxOccupancy="28.85" meanMaxJamLengthInVehicles="0.97" meanMaxJamLengthInMeters="5.24" maxJamLengthInVehicles="3" maxJamLengthInMeters="18.81" jamLengthInVehiclesSum="97" jamLengthInMetersSum="523.79" meanHaltingDuration="17.17" maxHaltingDuration="43.00" haltingDurationSum="103.00" meanIntervalHaltingDuration="17.17" maxIntervalHaltingDuration="43.00" intervalHaltingDurationSum="103.00" startedHalts="6.00" meanVehicleNumber="1.42" maxVehicleNumber="4" />
   <interval begin="23100.00" end="23200.00" id="e2_L40273_1_4" sampledSeconds="113.28" nVehEntered="10" nVehLeft="12" nVehSeen="13" meanSpeed="2.52" meanTimeLoss="6.96" meanOccupancy="7.80" maxOccupancy="28.85" meanMaxJamLengthInVehicles="0.45" meanMaxJamLengthInMeters="2.46" maxJamLengthInVehicles="3" maxJamLengthInMeters="19.91" jamLengthInVehiclesSum="45" jamLengthInMetersSum="245.99" meanHaltingDuration="13.00" maxHaltingDuration="46.00" haltingDurationSum="130.00" meanIntervalHaltingDuration="4.40" maxIntervalHaltingDuration="15.00" intervalHaltingDurationSum="44.00" startedHalts="11.00" meanVehicleNumber="1.15" maxVehicleNumber="4" />
   <interval begin="23200.00" end="23300.00" id="e2_L40273_1_4" sampledSeconds="300.89" nVehEntered="15" nVehLeft="16" nVehSeen="16" meanSpeed="1.09" meanTimeLoss="17.15" meanOccupancy="21.39" maxOccupancy="43.27" meanMaxJamLengthInVehicles="2.01" meanMaxJamLengthInMeters="12.43" maxJamLengthInVehicles="5" maxJamLengthInMeters="33.81" jamLengthInVehiclesSum="203" jamLengthInMetersSum="1252.12" meanHaltingDuration="11.80" maxHaltingDuration="74.00" haltingDurationSum="236.00" meanIntervalHaltingDuration="11.05" maxIntervalHaltingDuration="59.00" intervalHaltingDurationSum="221.00" startedHalts="23.00" meanVehicleNumber="3.02" maxVehicleNumber="6" />
   <interval begin="23300.00" end="23400.00" id="e2_L40273_1_4" sampledSeconds="67.03" nVehEntered="8" nVehLeft="6" nVehSeen="8" meanSpeed="3.06" meanTimeLoss="6.32" meanOccupancy="4.51" maxOccupancy="21.64" meanMaxJamLengthInVehicles="0.36" meanMaxJamLengthInMeters="1.81" maxJamLengthInVehicles="2" maxJamLengthInMeters="11.63" jamLengthInVehiclesSum="36" jamLengthInMetersSum="180.57" meanHaltingDuration="10.00" maxHaltingDuration="30.00" haltingDurationSum="40.00" meanIntervalHaltingDuration="10.00" maxIntervalHaltingDuration="30.00" intervalHaltingDurationSum="40.00" startedHalts="4.00" meanVehicleNumber="0.69" maxVehicleNumber="3" />
   <interval begin="23400.00" end="23500.00" id="e2_L40273_1_4" sampledSeconds="116.16" nVehEntered="10" nVehLeft="12" nVehSeen="12" meanSpeed="2.11" meanTimeLoss="8.05" meanOccupancy="8.05" maxOccupancy="28.85" meanMaxJamLengthInVehicles="0.66" meanMaxJamLengthInMeters="4.00" maxJamLengthInVehicles="3" maxJamLengthInMeters="19.49" jamLengthInVehiclesSum="66" jamLengthInMetersSum="399.88" meanHaltingDuration="11.67" maxHaltingDuration="47.00" haltingDurationSum="105.00" meanIntervalHaltingDuration="7.55" maxIntervalHaltingDuration="18.00" intervalHaltingDurationSum="68.00" startedHalts="8.00" meanVehicleNumber="1.18" maxVehicleNumber="4" />
   <interval begin="23500.00" end="23600.00" id="e2_L40273_1_4" sampledSeconds="243.73" nVehEntered="14" nVehLeft="12" nVehSeen="14" meanSpeed="1.23" meanTimeLoss="15.69" meanOccupancy="14.47" maxOccupancy="31.07" meanMaxJamLengthInVehicles="1.83" meanMaxJamLengthInMeters="10.72" maxJamLengthInVehicles="4" maxJamLengthInMeters="27.14" jamLengthInVehiclesSum="183" jamLengthInMetersSum="1072.44" meanHaltingDuration="15.80" maxHaltingDuration="48.00" haltingDurationSum="79.00" meanIntervalHaltingDuration="15.80" maxIntervalHaltingDuration="48.00" intervalHaltingDurationSum="79.00" startedHalts="8.00" meanVehicleNumber="2.45" maxVehicleNumber="5" />
   <interval begin="23600.00" end="23700.00" id="e2_L40273_1_4" sampledSeconds="19.78" nVehEntered="2" nVehLeft="4" nVehSeen="4" meanSpeed="4.29" meanTimeLoss="3.25" meanOccupancy="1.25" maxOccupancy="14.42" meanMaxJamLengthInVehicles="0.00" meanMaxJamLengthInMeters="0.00" maxJamLengthInVehicles="0" maxJamLengthInMeters="0.00" jamLengthInVehiclesSum="0" jamLengthInMetersSum="0.00" meanHaltingDuration="1.00" maxHaltingDuration="1.00" haltingDurationSum="2.00" meanIntervalHaltingDuration="1.00" maxIntervalHaltingDuration="1.00" intervalHaltingDurationSum="2.00" startedHalts="2.00" meanVehicleNumber="0.20" maxVehicleNumber="2" />
   <interval begin="23700.00" end="23800.00" id="e2_L40273_1_4" sampledSeconds="44.45" nVehEntered="6" nVehLeft="6" nVehSeen="6" meanSpeed="3.38" meanTimeLoss="5.41" meanOccupancy="3.04" maxOccupancy="21.64" meanMaxJamLengthInVehicles="0.20" meanMaxJamLengthInMeters="0.98" maxJamLengthInVehicles="2" maxJamLengthInMeters="13.23" jamLengthInVehiclesSum="20" jamLengthInMetersSum="98.50" meanHaltingDuration="10.50" maxHaltingDuration="17.00" haltingDurationSum="21.00" meanIntervalHaltingDuration="10.50" maxIntervalHaltingDuration="17.00" intervalHaltingDurationSum="21.00" startedHalts="3.00" meanVehicleNumber="0.46" maxVehicleNumber="3" />
   <interval begin="23800.00" end="23900.00" id="e2_L40273_1_4" sampledSeconds="0.00" nVehEntered="0" nVehLeft="0" nVehSeen="0" meanSpeed="-1.00" meanTimeLoss="-1.00" meanOccupancy="0.00" maxOccupancy="0.00" meanMaxJamLengthInVehicles="0.00" meanMaxJamLengthInMeters="0.00" maxJamLengthInVehicles="0" maxJamLengthInMeters="0.00" jamLengthInVehiclesSum="0" jamLengthInMetersSum="0.00" meanHaltingDuration="0.00" maxHaltingDuration="0.00" haltingDurationSum="0.00" meanIntervalHaltingDuration="0.00" maxIntervalHaltingDuration="0.00" intervalHaltingDurationSum="0.00" startedHalts="0.00" meanVehicleNumber="0.00" maxVehicleNumber="0" />
   <interval begin="23900.00" end="24000.00" id="e2_L40273_1_4" sampledSeconds="0.00" nVehEntered="0" nVehLeft="0" nVehSeen="0" meanSpeed="-1.00" meanTimeLoss="-1.00" meanOccupancy="0.00" maxOccupancy="0.00" meanMaxJamLengthInVehicles="0.00" meanMaxJamLengthInMeters="0.00" maxJamLengthInVehicles="0" maxJamLengthInMeters="0.00" jamLengthInVehiclesSum="0" jamLengthInMetersSum="0.00" meanHaltingDuration="0.00" maxHaltingDuration="0.00" haltingDurationSum="0.00" meanIntervalHaltingDuration="0.00" maxIntervalHaltingDuration="0.00" intervalHaltingDurationSum="0.00" startedHalts="0.00" meanVehicleNumber="0.00" maxVehicleNumber="0" />
   <interval begin="24000.00" end="24100.00" id="e2_L40273_1_4" sampledSeconds="19.89" nVehEntered="3" nVehLeft="3" nVehSeen="3" meanSpeed="4.36" meanTimeLoss="4.32" meanOccupancy="1.13" maxOccupancy="7.21" meanMaxJamLengthInVehicles="0.01" meanMaxJamLengthInMeters="0.01" maxJamLengthInVehicles="1" maxJamLengthInMeters="1.00" jamLengthInVehiclesSum="1" jamLengthInMetersSum="1.00" meanHaltingDuration="1.50" maxHaltingDuration="2.00" haltingDurationSum="3.00" meanIntervalHaltingDuration="1.50" maxIntervalHaltingDuration="2.00" intervalHaltingDurationSum="3.00" startedHalts="2.00" meanVehicleNumber="0.22" maxVehicleNumber="1" />
   <interval begin="24100.00" end="24200.00" id="e2_L40273_1_4" sampledSeconds="0.00" nVehEntered="0" nVehLeft="0" nVehSeen="0" meanSpeed="-1.00" meanTimeLoss="-1.00" meanOccupancy="0.00" maxOccupancy="0.00" meanMaxJamLengthInVehicles="0.00" meanMaxJamLengthInMeters="0.00" maxJamLengthInVehicles="0" maxJamLengthInMeters="0.00" jamLengthInVehiclesSum="0" jamLengthInMetersSum="0.00" meanHaltingDuration="0.00" maxHaltingDuration="0.00" haltingDurationSum="0.00" meanIntervalHaltingDuration="0.00" maxIntervalHaltingDuration="0.00" intervalHaltingDurationSum="0.00" startedHalts="0.00" meanVehicleNumber="0.00" maxVehicleNumber="0" />
   <interval begin="24200.00" end="24300.00" id="e2_L40273_1_4" sampledSeconds="5.60" nVehEntered="1" nVehLeft="1" nVehSeen="1" meanSpeed="11.15" meanTimeLoss="0.61" meanOccupancy="0.36" maxOccupancy="7.21" meanMaxJamLengthInVehicles="0.00" meanMaxJamLengthInMeters="0.00" maxJamLengthInVehicles="0" maxJamLengthInMeters="0.00" jamLengthInVehiclesSum="0" jamLengthInMetersSum="0.00" meanHaltingDuration="0.00" maxHaltingDuration="0.00" haltingDurationSum="0.00" meanIntervalHaltingDuration="0.00" maxIntervalHaltingDuration="0.00" intervalHaltingDurationSum="0.00" startedHalts="0.00" meanVehicleNumber="0.06" maxVehicleNumber="1" />
   <interval begin="24300.00" end="24400.00" id="e2_L40273_1_4" sampledSeconds="247.00" nVehEntered="12" nVehLeft="7" nVehSeen="12" meanSpeed="0.67" meanTimeLoss="19.48" meanOccupancy="17.81" maxOccupancy="36.06" meanMaxJamLengthInVehicles="2.10" meanMaxJamLengthInMeters="12.70" maxJamLengthInVehicles="5" maxJamLengthInMeters="32.88" jamLengthInVehiclesSum="210" jamLengthInMetersSum="1270.21" meanHaltingDuration="43.00" maxHaltingDuration="85.00" haltingDurationSum="215.00" meanIntervalHaltingDuration="43.00" maxIntervalHaltingDuration="85.00" intervalHaltingDurationSum="215.00" startedHalts="6.00" meanVehicleNumber="2.47" maxVehicleNumber="5" />
   <interval begin="24400.00" end="24500.00" id="e2_L40273_1_4" sampledSeconds="306.07" nVehEntered="12" nVehLeft="17" nVehSeen="17" meanSpeed="1.22" meanTimeLoss="16.25" meanOccupancy="21.47" maxOccupancy="57.52" meanMaxJamLengthInVehicles="1.94" meanMaxJamLengthInMeters="12.55" maxJamLengthInVehicles="7" maxJamLengthInMeters="47.70" jamLengthInVehiclesSum="197" jamLengthInMetersSum="1269.08" meanHaltingDuration="20.19" maxHaltingDuration="111.00" haltingDurationSum="424.00" meanIntervalHaltingDuration="9.95" maxIntervalHaltingDuration="30.00" intervalHaltingDurationSum="209.00" startedHalts="19.00" meanVehicleNumber="3.09" maxVehicleNumber="8" />
   <interval begin="24500.00" end="24600.00" id="e2_L40273_1_4" sampledSeconds="50.33" nVehEntered="5" nVehLeft="2" nVehSeen="5" meanSpeed="2.49" meanTimeLoss="8.04" meanOccupancy="2.56" maxOccupancy="16.95" meanMaxJamLengthInVehicles="0.26" meanMaxJamLengthInMeters="0.91" maxJamLengthInVehicles="3" maxJamLengthInMeters="19.24" jamLengthInVehiclesSum="26" jamLengthInMetersSum="90.54" meanHaltingDuration="9.67" maxHaltingDuration="21.00" haltingDurationSum="29.00" meanIntervalHaltingDuration="9.67" maxIntervalHaltingDuration="21.00" intervalHaltingDurationSum="29.00" startedHalts="4.00" meanVehicleNumber="0.51" maxVehicleNumber="3" />
   <interval begin="24600.00" end="24700.00" id="e2_L40273_1_4" sampledSeconds="186.69" nVehEntered="8" nVehLeft="11" nVehSeen="11" meanSpeed="0.86" meanTimeLoss="15.80" meanOccupancy="11.56" maxOccupancy="31.37" meanMaxJamLengthInVehicles="1.49" meanMaxJamLengthInMeters="9.54" maxJamLengthInVehicles="5" maxJamLengthInMeters="35.15" jamLengthInVehiclesSum="149" jamLengthInMetersSum="954.26" meanHaltingDuration="17.86" maxHaltingDuration="44.00" haltingDurationSum="125.00" meanIntervalHaltingDuration="16.71" maxIntervalHaltingDuration="39.00" intervalHaltingDurationSum="117.00" startedHalts="6.00" meanVehicleNumber="1.88" maxVehicleNumber="5" />
   <interval begin="24700.00" end="24800.00" id="e2_L40273_1_4" sampledSeconds="5.97" nVehEntered="1" nVehLeft="1" nVehSeen="1" meanSpeed="6.62" meanTimeLoss="2.81" meanOccupancy="0.36" maxOccupancy="7.21" meanMaxJamLengthInVehicles="0.00" meanMaxJamLengthInMeters="0.00" maxJamLengthInVehicles="0" maxJamLengthInMeters="0.00" jamLengthInVehiclesSum="0" jamLengthInMetersSum="0.00" meanHaltingDuration="0.00" maxHaltingDuration="0.00" haltingDurationSum="0.00" meanIntervalHaltingDuration="0.00" maxIntervalHaltingDuration="0.00" intervalHaltingDurationSum="0.00" startedHalts="0.00" meanVehicleNumber="0.06" maxVehicleNumber="1" />
   <interval begin="24800.00" end="24900.00" id="e2_L40273_1_4" sampledSeconds="220.37" nVehEntered="14" nVehLeft="14" nVehSeen="14" meanSpeed="1.49" meanTimeLoss="13.86" meanOccupancy="12.94" maxOccupancy="31.37" meanMaxJamLengthInVehicles="1.51" meanMaxJamLengthInMeters="8.84" maxJamLengthInVehicles="4" maxJamLengthInMeters="27.95" jamLengthInVehiclesSum="151" jamLengthInMetersSum="884.13" meanHaltingDuration="20.40" maxHaltingDuration="43.00" haltingDurationSum="102.00" meanIntervalHaltingDuration="20.40" maxIntervalHaltingDuration="43.00" intervalHaltingDurationSum="102.00" startedHalts="7.00" meanVehicleNumber="2.23" maxVehicleNumber="5" />
   <interval begin="24900.00" end="25000.00" id="e2_L40273_1_4" sampledSeconds="0.00" nVehEntered="0" nVehLeft="0" nVehSeen="0" meanSpeed="-1.00" meanTimeLoss="-1.00" meanOccupancy="0.00" maxOccupancy="0.00" meanMaxJamLengthInVehicles="0.00" meanMaxJamLengthInMeters="0.00" maxJamLengthInVehicles="0" maxJamLengthInMeters="0.00" jamLengthInVehiclesSum="0" jamLengthInMetersSum="0.00" meanHaltingDuration="0.00" maxHaltingDuration="0.00" haltingDurationSum="0.00" meanIntervalHaltingDuration="0.00" maxIntervalHaltingDuration="0.00" intervalHaltingDurationSum="0.00" startedHalts="0.00" meanVehicleNumber="0.00" maxVehicleNumber="0" />
   <interval begin="25000.00" end="25100.00" id="e2_L40273_1_4" sampledSeconds="0.00" nVehEntered="0" nVehLeft="0" nVehSeen="0" meanSpeed="-1.00" meanTimeLoss="-1.00" meanOccupancy="0.00" maxOccupancy="0.00" meanMaxJamLengthInVehicles="0.00" meanMaxJamLengthInMeters="0.00" maxJamLengthInVehicles="0" maxJamLengthInMeters="0.00" jamLengthInVehiclesSum="0" jamLengthInMetersSum="0.00" meanHaltingDuration="0.00" maxHaltingDuration="0.00" haltingDurationSum="0.00" meanIntervalHaltingDuration="0.00" maxIntervalHaltingDuration="0.00" intervalHaltingDurationSum="0.00" startedHalts="0.00" meanVehicleNumber="0.00" maxVehicleNumber="0" />
   <interval begin="25100.00" end="25200.00" id="e2_L40273_1_4" sampledSeconds="9.09" nVehEntered="2" nVehLeft="2" nVehSeen="2" meanSpeed="7.07" meanTimeLoss="1.97" meanOccupancy="0.52" maxOccupancy="7.21" meanMaxJamLengthInVehicles="0.00" meanMaxJamLengthInMeters="0.00" maxJamLengthInVehicles="0" maxJamLengthInMeters="0.00" jamLengthInVehiclesSum="0" jamLengthInMetersSum="0.00" meanHaltingDuration="0.00" maxHaltingDuration="0.00" haltingDurationSum="0.00" meanIntervalHaltingDuration="0.00" maxIntervalHaltingDuration="0.00" intervalHaltingDurationSum="0.00" startedHalts="0.00" meanVehicleNumber="0.11" maxVehicleNumber="1" />
   <interval begin="25200.00" end="25300.00" id="e2_L40273_1_4" sampledSeconds="0.00" nVehEntered="0" nVehLeft="0" nVehSeen="0" meanSpeed="-1.00" meanTimeLoss="-1.00" meanOccupancy="0.00" maxOccupancy="0.00" meanMaxJamLengthInVehicles="0.00" meanMaxJamLengthInMeters="0.00" maxJamLengthInVehicles="0" maxJamLengthInMeters="0.00" jamLengthInVehiclesSum="0" jamLengthInMetersSum="0.00" meanHaltingDuration="0.00" maxHaltingDuration="0.00" haltingDurationSum="0.00" meanIntervalHaltingDuration="0.00" maxIntervalHaltingDuration="0.00" intervalHaltingDurationSum="0.00" startedHalts="0.00" meanVehicleNumber="0.00" maxVehicleNumber="0" />
   <interval begin="25300.00" end="25400.00" id="e2_L40273_1_4" sampledSeconds="8.67" nVehEntered="1" nVehLeft="1" nVehSeen="1" meanSpeed="7.70" meanTimeLoss="3.33" meanOccupancy="0.58" maxOccupancy="7.21" meanMaxJamLengthInVehicles="0.00" meanMaxJamLengthInMeters="0.00" maxJamLengthInVehicles="0" maxJamLengthInMeters="0.00" jamLengthInVehiclesSum="0" jamLengthInMetersSum="0.00" meanHaltingDuration="0.00" maxHaltingDuration="0.00" haltingDurationSum="0.00" meanIntervalHaltingDuration="0.00" maxIntervalHaltingDuration="0.00" intervalHaltingDurationSum="0.00" startedHalts="0.00" meanVehicleNumber="0.09" maxVehicleNumber="1" />
   <interval begin="25400.00" end="25500.00" id="e2_L40273_1_4" sampledSeconds="3.00" nVehEntered="1" nVehLeft="1" nVehSeen="1" meanSpeed="11.02" meanTimeLoss="0.36" meanOccupancy="0.21" maxOccupancy="7.21" meanMaxJamLengthInVehicles="0.00" meanMaxJamLengthInMeters="0.00" maxJamLengthInVehicles="0" maxJamLengthInMeters="0.00" jamLengthInVehiclesSum="0" jamLengthInMetersSum="0.00" meanHaltingDuration="0.00" maxHaltingDuration="0.00" haltingDurationSum="0.00" meanIntervalHaltingDuration="0.00" maxIntervalHaltingDuration="0.00" intervalHaltingDurationSum="0.00" startedHalts="0.00" meanVehicleNumber="0.03" maxVehicleNumber="1" />
   <interval begin="25500.00" end="25600.00" id="e2_L40273_1_4" sampledSeconds="134.51" nVehEntered="9" nVehLeft="5" nVehSeen="9" meanSpeed="1.24" meanTimeLoss="13.46" meanOccupancy="9.60" maxOccupancy="28.85" meanMaxJamLengthInVehicles="1.05" meanMaxJamLengthInMeters="6.02" maxJamLengthInVehicles="3" maxJamLengthInMeters="18.82" jamLengthInVehiclesSum="105" jamLengthInMetersSum="601.92" meanHaltingDuration="27.25" maxHaltingDuration="57.00" haltingDurationSum="109.00" meanIntervalHaltingDuration="27.25" maxIntervalHaltingDuration="57.00" intervalHaltingDurationSum="109.00" startedHalts="4.00" meanVehicleNumber="1.35" maxVehicleNumber="4" />
   <interval begin="25600.00" end="25700.00" id="e2_L40273_1_4" sampledSeconds="384.47" nVehEntered="12" nVehLeft="16" nVehSeen="16" meanSpeed="1.07" meanTimeLoss="21.97" meanOccupancy="27.36" maxOccupancy="43.27" meanMaxJamLengthInVehicles="3.06" meanMaxJamLengthInMeters="19.79" maxJamLengthInVehicles="6" maxJamLengthInMeters="40.91" jamLengthInVehiclesSum="306" jamLengthInMetersSum="1979.37" meanHaltingDuration="69.50" maxHaltingDuration="122.00" haltingDurationSum="417.00" meanIntervalHaltingDuration="51.50" maxIntervalHaltingDuration="67.00" intervalHaltingDurationSum="309.00" startedHalts="4.00" meanVehicleNumber="3.86" maxVehicleNumber="6" />
   <interval begin="25700.00" end="25800.00" id="e2_L40273_1_4" sampledSeconds="64.07" nVehEntered="7" nVehLeft="4" nVehSeen="7" meanSpeed="2.48" meanTimeLoss="7.33" meanOccupancy="4.54" maxOccupancy="21.64" meanMaxJamLengthInVehicles="0.39" meanMaxJamLengthInMeters="2.16" maxJamLengthInVehicles="2" maxJamLengthInMeters="11.74" jamLengthInVehiclesSum="39" jamLengthInMetersSum="215.88" meanHaltingDuration="14.00" maxHaltingDuration="25.00" haltingDurationSum="42.00" meanIntervalHaltingDuration="14.00" maxIntervalHaltingDuration="25.00" intervalHaltingDurationSum="42.00" startedHalts="3.00" meanVehicleNumber="0.65" maxVehicleNumber="3" />
   <interval begin="25800.00" end="25900.00" id="e2_L40273_1_4" sampledSeconds="456.00" nVehEntered="13" nVehLeft="9" nVehSeen="16" meanSpeed="0.38" meanTimeLoss="27.63" meanOccupancy="32.89" maxOccupancy="50.48" meanMaxJamLengthInVehicles="4.19" meanMaxJamLengthInMeters="26.93" maxJamLengthInVehicles="6" maxJamLengthInMeters="39.58" jamLengthInVehiclesSum="419" jamLengthInMetersSum="2692.82" meanHaltingDuration="77.33" maxHaltingDuration="125.00" haltingDurationSum="464.00" meanIntervalHaltingDuration="70.50" maxIntervalHaltingDuration="100.00" intervalHaltingDurationSum="423.00" startedHalts="5.00" meanVehicleNumber="4.56" maxVehicleNumber="7" />
   <interval begin="25900.00" end="26000.00" id="e2_L40273_1_4" sampledSeconds="643.02" nVehEntered="8" nVehLeft="14" nVehSeen="15" meanSpeed="0.58" meanTimeLoss="40.87" meanOccupancy="45.90" maxOccupancy="57.70" meanMaxJamLengthInVehicles="5.13" meanMaxJamLengthInMeters="34.13" maxJamLengthInVehicles="8" maxJamLengthInMeters="53.63" jamLengthInVehiclesSum="517" jamLengthInMetersSum="3431.11" meanHaltingDuration="47.35" maxHaltingDuration="187.00" haltingDurationSum="947.00" meanIntervalHaltingDuration="24.15" maxIntervalHaltingDuration="70.00" intervalHaltingDurationSum="483.00" startedHalts="17.00" meanVehicleNumber="6.45" maxVehicleNumber="8" />