<?xml version="1.0" encoding="UTF-8"?>

<!-- generated on Sun Feb 17 15:57:00 2019 by 
<configuration xmlns:xsi="http://www.w3.org/2001/XMLSchema-instance" xsi:noNamespaceSchemaLocation="http://sumo.dlr.de/xsd/Configuration.xsd">

    <input>
        <net-file value="/home/sda/Documents/sumo-sathorn-ray/models/sathorn-morning/sathorn_w_fixed_20160404.net.xml"/>
        <route-files value="/home/sda/Documents/sumo-sathorn-ray/models/sathorn-morning/Great-route/sathorn_w_20160422edit2.rou.xml"/>
        <additional-files value="/home/sda/Documents/sumo-sathorn-ray/models/sathorn-morning/sathon_wide_tls_20160418_edited.add.xml,/home/sda/Documents/sumo-sathorn-ray/detectors/sathorn_w_detectors.add.xml"/>
    </input>

    <time>
        <begin value="21600"/>
        <end value="32400"/>
        <step-length value="1"/>
    </time>

    <processing>
        <no-internal-links value="true"/>
        <ignore-junction-blocker value="-1"/>
        <time-to-teleport value="-1"/>
        <eager-insert value="true"/>
        <time-to-impatience value="300"/>
    </processing>

    <report>
        <no-warnings value="true"/>
    </report>

    <random_number>
        <random value="false"/>
        <seed value="20"/>
    </random_number>

    <gui_only>
        <gui-settings-file value="/home/sda/Documents/sumo-sathorn-ray/gui-settings/gui-settings-file-surasak.xml"/>
        <quit-on-end value="true"/>
        <start value="true"/>
        <tracker-interval value="1"/>
    </gui_only>

</configuration>
-->

<detector xmlns:xsi="http://www.w3.org/2001/XMLSchema-instance" xsi:noNamespaceSchemaLocation="http://sumo.dlr.de/xsd/det_e2_file.xsd">
   <interval begin="21600.00" end="21700.00" id="e2_L197#2_3_1" sampledSeconds="0.00" nVehEntered="0" nVehLeft="0" nVehSeen="0" meanSpeed="-1.00" meanTimeLoss="-1.00" meanOccupancy="0.00" maxOccupancy="0.00" meanMaxJamLengthInVehicles="0.00" meanMaxJamLengthInMeters="0.00" maxJamLengthInVehicles="0" maxJamLengthInMeters="0.00" jamLengthInVehiclesSum="0" jamLengthInMetersSum="0.00" meanHaltingDuration="0.00" maxHaltingDuration="0.00" haltingDurationSum="0.00" meanIntervalHaltingDuration="0.00" maxIntervalHaltingDuration="0.00" intervalHaltingDurationSum="0.00" startedHalts="0.00" meanVehicleNumber="0.00" maxVehicleNumber="0" />
   <interval begin="21700.00" end="21800.00" id="e2_L197#2_3_1" sampledSeconds="0.00" nVehEntered="0" nVehLeft="0" nVehSeen="0" meanSpeed="-1.00" meanTimeLoss="-1.00" meanOccupancy="0.00" maxOccupancy="0.00" meanMaxJamLengthInVehicles="0.00" meanMaxJamLengthInMeters="0.00" maxJamLengthInVehicles="0" maxJamLengthInMeters="0.00" jamLengthInVehiclesSum="0" jamLengthInMetersSum="0.00" meanHaltingDuration="0.00" maxHaltingDuration="0.00" haltingDurationSum="0.00" meanIntervalHaltingDuration="0.00" maxIntervalHaltingDuration="0.00" intervalHaltingDurationSum="0.00" startedHalts="0.00" meanVehicleNumber="0.00" maxVehicleNumber="0" />
   <interval begin="21800.00" end="21900.00" id="e2_L197#2_3_1" sampledSeconds="0.00" nVehEntered="0" nVehLeft="0" nVehSeen="0" meanSpeed="-1.00" meanTimeLoss="-1.00" meanOccupancy="0.00" maxOccupancy="0.00" meanMaxJamLengthInVehicles="0.00" meanMaxJamLengthInMeters="0.00" maxJamLengthInVehicles="0" maxJamLengthInMeters="0.00" jamLengthInVehiclesSum="0" jamLengthInMetersSum="0.00" meanHaltingDuration="0.00" maxHaltingDuration="0.00" haltingDurationSum="0.00" meanIntervalHaltingDuration="0.00" maxIntervalHaltingDuration="0.00" intervalHaltingDurationSum="0.00" startedHalts="0.00" meanVehicleNumber="0.00" maxVehicleNumber="0" />
   <interval begin="21900.00" end="22000.00" id="e2_L197#2_3_1" sampledSeconds="126.37" nVehEntered="17" nVehLeft="14" nVehSeen="17" meanSpeed="2.40" meanTimeLoss="6.00" meanOccupancy="13.12" maxOccupancy="33.10" meanMaxJamLengthInVehicles="0.80" meanMaxJamLengthInMeters="4.27" maxJamLengthInVehicles="3" maxJamLengthInMeters="18.89" jamLengthInVehiclesSum="80" jamLengthInMetersSum="426.74" meanHaltingDuration="21.00" maxHaltingDuration="26.00" haltingDurationSum="63.00" meanIntervalHaltingDuration="21.00" maxIntervalHaltingDuration="26.00" intervalHaltingDurationSum="63.00" startedHalts="4.00" meanVehicleNumber="1.30" maxVehicleNumber="3" />
   <interval begin="22000.00" end="22100.00" id="e2_L197#2_3_1" sampledSeconds="544.72" nVehEntered="5" nVehLeft="2" nVehSeen="8" meanSpeed="0.08" meanTimeLoss="67.62" meanOccupancy="62.30" maxOccupancy="68.87" meanMaxJamLengthInVehicles="5.33" meanMaxJamLengthInMeters="34.90" maxJamLengthInVehicles="6" maxJamLengthInMeters="39.71" jamLengthInVehiclesSum="533" jamLengthInMetersSum="3489.79" meanHaltingDuration="99.83" maxHaltingDuration="126.00" haltingDurationSum="599.00" meanIntervalHaltingDuration="89.33" maxIntervalHaltingDuration="100.00" intervalHaltingDurationSum="536.00" startedHalts="3.00" meanVehicleNumber="5.47" maxVehicleNumber="6" />
   <interval begin="22100.00" end="22200.00" id="e2_L197#2_3_1" sampledSeconds="600.00" nVehEntered="0" nVehLeft="0" nVehSeen="6" meanSpeed="0.00" meanTimeLoss="100.00" meanOccupancy="68.87" maxOccupancy="68.87" meanMaxJamLengthInVehicles="6.00" meanMaxJamLengthInMeters="39.58" maxJamLengthInVehicles="6" maxJamLengthInMeters="39.58" jamLengthInVehiclesSum="600" jamLengthInMetersSum="3957.53" meanHaltingDuration="199.83" maxHaltingDuration="226.00" haltingDurationSum="1199.00" meanIntervalHaltingDuration="100.00" maxIntervalHaltingDuration="100.00" intervalHaltingDurationSum="600.00" startedHalts="0.00" meanVehicleNumber="6.00" maxVehicleNumber="6" />
   <interval begin="22200.00" end="22300.00" id="e2_L197#2_3_1" sampledSeconds="584.51" nVehEntered="2" nVehLeft="2" nVehSeen="8" meanSpeed="0.15" meanTimeLoss="72.18" meanOccupancy="66.61" maxOccupancy="68.87" meanMaxJamLengthInVehicles="5.49" meanMaxJamLengthInMeters="36.16" maxJamLengthInVehicles="6" maxJamLengthInMeters="41.55" jamLengthInVehiclesSum="552" jamLengthInMetersSum="3626.54" meanHaltingDuration="110.06" maxHaltingDuration="277.00" haltingDurationSum="1761.00" meanIntervalHaltingDuration="35.12" maxIntervalHaltingDuration="57.00" intervalHaltingDurationSum="562.00" startedHalts="11.00" meanVehicleNumber="5.87" maxVehicleNumber="6" />
   <interval begin="22300.00" end="22400.00" id="e2_L197#2_3_1" sampledSeconds="592.87" nVehEntered="1" nVehLeft="1" nVehSeen="7" meanSpeed="0.07" meanTimeLoss="84.19" meanOccupancy="67.69" maxOccupancy="68.87" meanMaxJamLengthInVehicles="5.76" meanMaxJamLengthInMeters="38.11" maxJamLengthInVehicles="6" maxJamLengthInMeters="41.58" jamLengthInVehiclesSum="579" jamLengthInMetersSum="3827.95" meanHaltingDuration="68.17" maxHaltingDuration="73.00" haltingDurationSum="818.00" meanIntervalHaltingDuration="48.75" maxIntervalHaltingDuration="73.00" intervalHaltingDurationSum="585.00" startedHalts="6.00" meanVehicleNumber="5.93" maxVehicleNumber="6" />
   <interval begin="22400.00" end="22500.00" id="e2_L197#2_3_1" sampledSeconds="600.00" nVehEntered="0" nVehLeft="0" nVehSeen="6" meanSpeed="0.00" meanTimeLoss="100.00" meanOccupancy="68.86" maxOccupancy="68.86" meanMaxJamLengthInVehicles="6.00" meanMaxJamLengthInMeters="39.58" maxJamLengthInVehicles="6" maxJamLengthInMeters="39.58" jamLengthInVehiclesSum="600" jamLengthInMetersSum="3957.52" meanHaltingDuration="170.00" maxHaltingDuration="173.00" haltingDurationSum="1020.00" meanIntervalHaltingDuration="100.00" maxIntervalHaltingDuration="100.00" intervalHaltingDurationSum="600.00" startedHalts="0.00" meanVehicleNumber="6.00" maxVehicleNumber="6" />
   <interval begin="22500.00" end="22600.00" id="e2_L197#2_3_1" sampledSeconds="600.00" nVehEntered="0" nVehLeft="0" nVehSeen="6" meanSpeed="0.00" meanTimeLoss="100.00" meanOccupancy="68.86" maxOccupancy="68.86" meanMaxJamLengthInVehicles="6.00" meanMaxJamLengthInMeters="39.58" maxJamLengthInVehicles="6" maxJamLengthInMeters="39.58" jamLengthInVehiclesSum="600" jamLengthInMetersSum="3957.52" meanHaltingDuration="270.00" maxHaltingDuration="273.00" haltingDurationSum="1620.00" meanIntervalHaltingDuration="100.00" maxIntervalHaltingDuration="100.00" intervalHaltingDurationSum="600.00" startedHalts="0.00" meanVehicleNumber="6.00" maxVehicleNumber="6" />
   <interval begin="22600.00" end="22700.00" id="e2_L197#2_3_1" sampledSeconds="600.00" nVehEntered="0" nVehLeft="0" nVehSeen="6" meanSpeed="0.00" meanTimeLoss="100.00" meanOccupancy="68.86" maxOccupancy="68.86" meanMaxJamLengthInVehicles="6.00" meanMaxJamLengthInMeters="39.58" maxJamLengthInVehicles="6" maxJamLengthInMeters="39.58" jamLengthInVehiclesSum="600" jamLengthInMetersSum="3957.52" meanHaltingDuration="370.00" maxHaltingDuration="373.00" haltingDurationSum="2220.00" meanIntervalHaltingDuration="100.00" maxIntervalHaltingDuration="100.00" intervalHaltingDurationSum="600.00" startedHalts="0.00" meanVehicleNumber="6.00" maxVehicleNumber="6" />
   <interval begin="22700.00" end="22800.00" id="e2_L197#2_3_1" sampledSeconds="600.00" nVehEntered="0" nVehLeft="0" nVehSeen="6" meanSpeed="0.00" meanTimeLoss="100.00" meanOccupancy="68.86" maxOccupancy="68.86" meanMaxJamLengthInVehicles="6.00" meanMaxJamLengthInMeters="39.58" maxJamLengthInVehicles="6" maxJamLengthInMeters="39.58" jamLengthInVehiclesSum="600" jamLengthInMetersSum="3957.52" meanHaltingDuration="470.00" maxHaltingDuration="473.00" haltingDurationSum="2820.00" meanIntervalHaltingDuration="100.00" maxIntervalHaltingDuration="100.00" intervalHaltingDurationSum="600.00" startedHalts="0.00" meanVehicleNumber="6.00" maxVehicleNumber="6" />
   <interval begin="22800.00" end="22900.00" id="e2_L197#2_3_1" sampledSeconds="600.00" nVehEntered="0" nVehLeft="0" nVehSeen="6" meanSpeed="0.00" meanTimeLoss="100.00" meanOccupancy="68.86" maxOccupancy="68.86" meanMaxJamLengthInVehicles="6.00" meanMaxJamLengthInMeters="39.58" maxJamLengthInVehicles="6" maxJamLengthInMeters="39.58" jamLengthInVehiclesSum="600" jamLengthInMetersSum="3957.52" meanHaltingDuration="570.00" maxHaltingDuration="573.00" haltingDurationSum="3420.00" meanIntervalHaltingDuration="100.00" maxIntervalHaltingDuration="100.00" intervalHaltingDurationSum="600.00" startedHalts="0.00" meanVehicleNumber="6.00" maxVehicleNumber="6" />
   <interval begin="22900.00" end="23000.00" id="e2_L197#2_3_1" sampledSeconds="600.00" nVehEntered="0" nVehLeft="0" nVehSeen="6" meanSpeed="0.00" meanTimeLoss="100.00" meanOccupancy="68.86" maxOccupancy="68.86" meanMaxJamLengthInVehicles="6.00" meanMaxJamLengthInMeters="39.58" maxJamLengthInVehicles="6" maxJamLengthInMeters="39.58" jamLengthInVehiclesSum="600" jamLengthInMetersSum="3957.52" meanHaltingDuration="670.00" maxHaltingDuration="673.00" haltingDurationSum="4020.00" meanIntervalHaltingDuration="100.00" maxIntervalHaltingDuration="100.00" intervalHaltingDurationSum="600.00" startedHalts="0.00" meanVehicleNumber="6.00" maxVehicleNumber="6" />
   <interval begin="23000.00" end="23100.00" id="e2_L197#2_3_1" sampledSeconds="600.00" nVehEntered="0" nVehLeft="0" nVehSeen="6" meanSpeed="0.00" meanTimeLoss="100.00" meanOccupancy="68.86" maxOccupancy="68.86" meanMaxJamLengthInVehicles="6.00" meanMaxJamLengthInMeters="39.58" maxJamLengthInVehicles="6" maxJamLengthInMeters="39.58" jamLengthInVehiclesSum="600" jamLengthInMetersSum="3957.52" meanHaltingDuration="770.00" maxHaltingDuration="773.00" haltingDurationSum="4620.00" meanIntervalHaltingDuration="100.00" maxIntervalHaltingDuration="100.00" intervalHaltingDurationSum="600.00" startedHalts="0.00" meanVehicleNumber="6.00" maxVehicleNumber="6" />
   <interval begin="23100.00" end="23200.00" id="e2_L197#2_3_1" sampledSeconds="600.00" nVehEntered="0" nVehLeft="0" nVehSeen="6" meanSpeed="0.00" meanTimeLoss="100.00" meanOccupancy="68.86" maxOccupancy="68.86" meanMaxJamLengthInVehicles="6.00" meanMaxJamLengthInMeters="39.58" maxJamLengthInVehicles="6" maxJamLengthInMeters="39.58" jamLengthInVehiclesSum="600" jamLengthInMetersSum="3957.52" meanHaltingDuration="870.00" maxHaltingDuration="873.00" haltingDurationSum="5220.00" meanIntervalHaltingDuration="100.00" maxIntervalHaltingDuration="100.00" intervalHaltingDurationSum="600.00" startedHalts="0.00" meanVehicleNumber="6.00" maxVehicleNumber="6" />
   <interval begin="23200.00" end="23300.00" id="e2_L197#2_3_1" sampledSeconds="600.00" nVehEntered="0" nVehLeft="0" nVehSeen="6" meanSpeed="0.00" meanTimeLoss="100.00" meanOccupancy="68.86" maxOccupancy="68.86" meanMaxJamLengthInVehicles="6.00" meanMaxJamLengthInMeters="39.58" maxJamLengthInVehicles="6" maxJamLengthInMeters="39.58" jamLengthInVehiclesSum="600" jamLengthInMetersSum="3957.52" meanHaltingDuration="970.00" maxHaltingDuration="973.00" haltingDurationSum="5820.00" meanIntervalHaltingDuration="100.00" maxIntervalHaltingDuration="100.00" intervalHaltingDurationSum="600.00" startedHalts="0.00" meanVehicleNumber="6.00" maxVehicleNumber="6" />
   <interval begin="23300.00" end="23400.00" id="e2_L197#2_3_1" sampledSeconds="600.00" nVehEntered="0" nVehLeft="0" nVehSeen="6" meanSpeed="0.00" meanTimeLoss="100.00" meanOccupancy="68.86" maxOccupancy="68.86" meanMaxJamLengthInVehicles="6.00" meanMaxJamLengthInMeters="39.58" maxJamLengthInVehicles="6" maxJamLengthInMeters="39.58" jamLengthInVehiclesSum="600" jamLengthInMetersSum="3957.52" meanHaltingDuration="1070.00" maxHaltingDuration="1073.00" haltingDurationSum="6420.00" meanIntervalHaltingDuration="100.00" maxIntervalHaltingDuration="100.00" intervalHaltingDurationSum="600.00" startedHalts="0.00" meanVehicleNumber="6.00" maxVehicleNumber="6" />
   <interval begin="23400.00" end="23500.00" id="e2_L197#2_3_1" sampledSeconds="592.65" nVehEntered="1" nVehLeft="1" nVehSeen="7" meanSpeed="0.08" meanTimeLoss="84.12" meanOccupancy="66.96" maxOccupancy="68.86" meanMaxJamLengthInVehicles="5.74" meanMaxJamLengthInMeters="37.91" maxJamLengthInVehicles="6" maxJamLengthInMeters="40.51" jamLengthInVehiclesSum="577" jamLengthInMetersSum="3802.87" meanHaltingDuration="583.58" maxHaltingDuration="1116.00" haltingDurationSum="7003.00" meanIntervalHaltingDuration="48.58" maxIntervalHaltingDuration="56.00" intervalHaltingDurationSum="583.00" startedHalts="6.00" meanVehicleNumber="5.94" maxVehicleNumber="6" />
   <interval begin="23500.00" end="23600.00" id="e2_L197#2_3_1" sampledSeconds="600.00" nVehEntered="0" nVehLeft="0" nVehSeen="6" meanSpeed="0.00" meanTimeLoss="100.00" meanOccupancy="67.37" maxOccupancy="67.37" meanMaxJamLengthInVehicles="6.00" meanMaxJamLengthInMeters="39.58" maxJamLengthInVehicles="6" maxJamLengthInMeters="39.58" jamLengthInVehiclesSum="600" jamLengthInMetersSum="3957.52" meanHaltingDuration="152.50" maxHaltingDuration="156.00" haltingDurationSum="915.00" meanIntervalHaltingDuration="100.00" maxIntervalHaltingDuration="100.00" intervalHaltingDurationSum="600.00" startedHalts="0.00" meanVehicleNumber="6.00" maxVehicleNumber="6" />
   <interval begin="23600.00" end="23700.00" id="e2_L197#2_3_1" sampledSeconds="600.00" nVehEntered="0" nVehLeft="0" nVehSeen="6" meanSpeed="0.00" meanTimeLoss="100.00" meanOccupancy="67.37" maxOccupancy="67.37" meanMaxJamLengthInVehicles="6.00" meanMaxJamLengthInMeters="39.58" maxJamLengthInVehicles="6" maxJamLengthInMeters="39.58" jamLengthInVehiclesSum="600" jamLengthInMetersSum="3957.52" meanHaltingDuration="252.50" maxHaltingDuration="256.00" haltingDurationSum="1515.00" meanIntervalHaltingDuration="100.00" maxIntervalHaltingDuration="100.00" intervalHaltingDurationSum="600.00" startedHalts="0.00" meanVehicleNumber="6.00" maxVehicleNumber="6" />
   <interval begin="23700.00" end="23800.00" id="e2_L197#2_3_1" sampledSeconds="600.00" nVehEntered="0" nVehLeft="0" nVehSeen="6" meanSpeed="0.00" meanTimeLoss="100.00" meanOccupancy="67.37" maxOccupancy="67.37" meanMaxJamLengthInVehicles="6.00" meanMaxJamLengthInMeters="39.58" maxJamLengthInVehicles="6" maxJamLengthInMeters="39.58" jamLengthInVehiclesSum="600" jamLengthInMetersSum="3957.52" meanHaltingDuration="352.50" maxHaltingDuration="356.00" haltingDurationSum="2115.00" meanIntervalHaltingDuration="100.00" maxIntervalHaltingDuration="100.00" intervalHaltingDurationSum="600.00" startedHalts="0.00" meanVehicleNumber="6.00" maxVehicleNumber="6" />
   <interval begin="23800.00" end="23900.00" id="e2_L197#2_3_1" sampledSeconds="592.43" nVehEntered="1" nVehLeft="1" nVehSeen="7" meanSpeed="0.08" meanTimeLoss="84.10" meanOccupancy="65.70" maxOccupancy="67.37" meanMaxJamLengthInVehicles="5.73" meanMaxJamLengthInMeters="37.95" maxJamLengthInVehicles="6" maxJamLengthInMeters="40.82" jamLengthInVehiclesSum="579" jamLengthInMetersSum="3826.70" meanHaltingDuration="207.77" maxHaltingDuration="450.00" haltingDurationSum="2701.00" meanIntervalHaltingDuration="45.08" maxIntervalHaltingDuration="100.00" intervalHaltingDurationSum="586.00" startedHalts="7.00" meanVehicleNumber="5.93" maxVehicleNumber="6" />
   <interval begin="23900.00" end="24000.00" id="e2_L197#2_3_1" sampledSeconds="585.04" nVehEntered="2" nVehLeft="2" nVehSeen="8" meanSpeed="0.14" meanTimeLoss="72.32" meanOccupancy="64.92" maxOccupancy="68.87" meanMaxJamLengthInVehicles="5.52" meanMaxJamLengthInMeters="36.40" maxJamLengthInVehicles="6" maxJamLengthInMeters="40.57" jamLengthInVehiclesSum="554" jamLengthInMetersSum="3645.02" meanHaltingDuration="88.13" maxHaltingDuration="525.00" haltingDurationSum="1322.00" meanIntervalHaltingDuration="37.53" maxIntervalHaltingDuration="77.00" intervalHaltingDurationSum="563.00" startedHalts="9.00" meanVehicleNumber="5.87" maxVehicleNumber="6" />
   <interval begin="24000.00" end="24100.00" id="e2_L197#2_3_1" sampledSeconds="600.00" nVehEntered="0" nVehLeft="0" nVehSeen="6" meanSpeed="0.00" meanTimeLoss="100.00" meanOccupancy="68.87" maxOccupancy="68.87" meanMaxJamLengthInVehicles="6.00" meanMaxJamLengthInMeters="39.58" maxJamLengthInVehicles="6" maxJamLengthInMeters="39.58" jamLengthInVehiclesSum="600" jamLengthInMetersSum="3957.52" meanHaltingDuration="118.83" maxHaltingDuration="122.00" haltingDurationSum="713.00" meanIntervalHaltingDuration="100.00" maxIntervalHaltingDuration="100.00" intervalHaltingDurationSum="600.00" startedHalts="0.00" meanVehicleNumber="6.00" maxVehicleNumber="6" />
   <interval begin="24100.00" end="24200.00" id="e2_L197#2_3_1" sampledSeconds="585.21" nVehEntered="2" nVehLeft="2" nVehSeen="8" meanSpeed="0.15" meanTimeLoss="72.28" meanOccupancy="66.63" maxOccupancy="68.87" meanMaxJamLengthInVehicles="5.49" meanMaxJamLengthInMeters="36.25" maxJamLengthInVehicles="6" maxJamLengthInMeters="41.59" jamLengthInVehiclesSum="549" jamLengthInMetersSum="3624.75" meanHaltingDuration="84.73" maxHaltingDuration="146.00" haltingDurationSum="1271.00" meanIntervalHaltingDuration="37.20" maxIntervalHaltingDuration="71.00" intervalHaltingDurationSum="558.00" startedHalts="9.00" meanVehicleNumber="5.86" maxVehicleNumber="6" />
   <interval begin="24200.00" end="24300.00" id="e2_L197#2_3_1" sampledSeconds="600.00" nVehEntered="0" nVehLeft="0" nVehSeen="6" meanSpeed="0.00" meanTimeLoss="100.00" meanOccupancy="68.86" maxOccupancy="68.86" meanMaxJamLengthInVehicles="6.00" meanMaxJamLengthInMeters="39.58" maxJamLengthInVehicles="6" maxJamLengthInMeters="39.58" jamLengthInVehiclesSum="600" jamLengthInMetersSum="3957.52" meanHaltingDuration="167.33" maxHaltingDuration="171.00" haltingDurationSum="1004.00" meanIntervalHaltingDuration="100.00" maxIntervalHaltingDuration="100.00" intervalHaltingDurationSum="600.00" startedHalts="0.00" meanVehicleNumber="6.00" maxVehicleNumber="6" />
   <interval begin="24300.00" end="24400.00" id="e2_L197#2_3_1" sampledSeconds="600.00" nVehEntered="0" nVehLeft="0" nVehSeen="6" meanSpeed="0.00" meanTimeLoss="100.00" meanOccupancy="68.86" maxOccupancy="68.86" meanMaxJamLengthInVehicles="6.00" meanMaxJamLengthInMeters="39.58" maxJamLengthInVehicles="6" maxJamLengthInMeters="39.58" jamLengthInVehiclesSum="600" jamLengthInMetersSum="3957.52" meanHaltingDuration="267.33" maxHaltingDuration="271.00" haltingDurationSum="1604.00" meanIntervalHaltingDuration="100.00" maxIntervalHaltingDuration="100.00" intervalHaltingDurationSum="600.00" startedHalts="0.00" meanVehicleNumber="6.00" maxVehicleNumber="6" />
   <interval begin="24400.00" end="24500.00" id="e2_L197#2_3_1" sampledSeconds="600.00" nVehEntered="0" nVehLeft="0" nVehSeen="6" meanSpeed="0.00" meanTimeLoss="100.00" meanOccupancy="68.86" maxOccupancy="68.86" meanMaxJamLengthInVehicles="6.00" meanMaxJamLengthInMeters="39.58" maxJamLengthInVehicles="6" maxJamLengthInMeters="39.58" jamLengthInVehiclesSum="600" jamLengthInMetersSum="3957.52" meanHaltingDuration="367.33" maxHaltingDuration="371.00" haltingDurationSum="2204.00" meanIntervalHaltingDuration="100.00" maxIntervalHaltingDuration="100.00" intervalHaltingDurationSum="600.00" startedHalts="0.00" meanVehicleNumber="6.00" maxVehicleNumber="6" />
   <interval begin="24500.00" end="24600.00" id="e2_L197#2_3_1" sampledSeconds="600.00" nVehEntered="0" nVehLeft="0" nVehSeen="6" meanSpeed="0.00" meanTimeLoss="100.00" meanOccupancy="68.86" maxOccupancy="68.86" meanMaxJamLengthInVehicles="6.00" meanMaxJamLengthInMeters="39.58" maxJamLengthInVehicles="6" maxJamLengthInMeters="39.58" jamLengthInVehiclesSum="600" jamLengthInMetersSum="3957.52" meanHaltingDuration="467.33" maxHaltingDuration="471.00" haltingDurationSum="2804.00" meanIntervalHaltingDuration="100.00" maxIntervalHaltingDuration="100.00" intervalHaltingDurationSum="600.00" startedHalts="0.00" meanVehicleNumber="6.00" maxVehicleNumber="6" />
   <interval begin="24600.00" end="24700.00" id="e2_L197#2_3_1" sampledSeconds="600.00" nVehEntered="0" nVehLeft="0" nVehSeen="6" meanSpeed="0.00" meanTimeLoss="100.00" meanOccupancy="68.86" maxOccupancy="68.86" meanMaxJamLengthInVehicles="6.00" meanMaxJamLengthInMeters="39.58" maxJamLengthInVehicles="6" maxJamLengthInMeters="39.58" jamLengthInVehiclesSum="600" jamLengthInMetersSum="3957.52" meanHaltingDuration="567.33" maxHaltingDuration="571.00" haltingDurationSum="3404.00" meanIntervalHaltingDuration="100.00" maxIntervalHaltingDuration="100.00" intervalHaltingDurationSum="600.00" startedHalts="0.00" meanVehicleNumber="6.00" maxVehicleNumber="6" />
   <interval begin="24700.00" end="24800.00" id="e2_L197#2_3_1" sampledSeconds="600.00" nVehEntered="0" nVehLeft="0" nVehSeen="6" meanSpeed="0.01" meanTimeLoss="99.93" meanOccupancy="67.98" maxOccupancy="68.86" meanMaxJamLengthInVehicles="6.00" meanMaxJamLengthInMeters="39.64" maxJamLengthInVehicles="6" maxJamLengthInMeters="40.38" jamLengthInVehiclesSum="600" jamLengthInMetersSum="3963.92" meanHaltingDuration="667.33" maxHaltingDuration="671.00" haltingDurationSum="4004.00" meanIntervalHaltingDuration="100.00" maxIntervalHaltingDuration="100.00" intervalHaltingDurationSum="600.00" startedHalts="0.00" meanVehicleNumber="6.00" maxVehicleNumber="6" />
   <interval begin="24800.00" end="24900.00" id="e2_L197#2_3_1" sampledSeconds="600.00" nVehEntered="0" nVehLeft="0" nVehSeen="6" meanSpeed="0.00" meanTimeLoss="100.00" meanOccupancy="66.54" maxOccupancy="66.54" meanMaxJamLengthInVehicles="6.00" meanMaxJamLengthInMeters="39.58" maxJamLengthInVehicles="6" maxJamLengthInMeters="39.58" jamLengthInVehiclesSum="600" jamLengthInMetersSum="3957.51" meanHaltingDuration="767.33" maxHaltingDuration="771.00" haltingDurationSum="4604.00" meanIntervalHaltingDuration="100.00" maxIntervalHaltingDuration="100.00" intervalHaltingDurationSum="600.00" startedHalts="0.00" meanVehicleNumber="6.00" maxVehicleNumber="6" />
   <interval begin="24900.00" end="25000.00" id="e2_L197#2_3_1" sampledSeconds="600.00" nVehEntered="0" nVehLeft="0" nVehSeen="6" meanSpeed="0.00" meanTimeLoss="100.00" meanOccupancy="66.54" maxOccupancy="66.54" meanMaxJamLengthInVehicles="6.00" meanMaxJamLengthInMeters="39.58" maxJamLengthInVehicles="6" maxJamLengthInMeters="39.58" jamLengthInVehiclesSum="600" jamLengthInMetersSum="3957.51" meanHaltingDuration="867.33" maxHaltingDuration="871.00" haltingDurationSum="5204.00" meanIntervalHaltingDuration="100.00" maxIntervalHaltingDuration="100.00" intervalHaltingDurationSum="600.00" startedHalts="0.00" meanVehicleNumber="6.00" maxVehicleNumber="6" />
   <interval begin="25000.00" end="25100.00" id="e2_L197#2_3_1" sampledSeconds="600.00" nVehEntered="0" nVehLeft="0" nVehSeen="6" meanSpeed="0.00" meanTimeLoss="100.00" meanOccupancy="66.54" maxOccupancy="66.54" meanMaxJamLengthInVehicles="6.00" meanMaxJamLengthInMeters="39.58" maxJamLengthInVehicles="6" maxJamLengthInMeters="39.58" jamLengthInVehiclesSum="600" jamLengthInMetersSum="3957.51" meanHaltingDuration="967.33" maxHaltingDuration="971.00" haltingDurationSum="5804.00" meanIntervalHaltingDuration="100.00" maxIntervalHaltingDuration="100.00" intervalHaltingDurationSum="600.00" startedHalts="0.00" meanVehicleNumber="6.00" maxVehicleNumber="6" />
   <interval begin="25100.00" end="25200.00" id="e2_L197#2_3_1" sampledSeconds="600.00" nVehEntered="0" nVehLeft="0" nVehSeen="6" meanSpeed="0.00" meanTimeLoss="100.00" meanOccupancy="66.54" maxOccupancy="66.54" meanMaxJamLengthInVehicles="6.00" meanMaxJamLengthInMeters="39.58" maxJamLengthInVehicles="6" maxJamLengthInMeters="39.58" jamLengthInVehiclesSum="600" jamLengthInMetersSum="3957.51" meanHaltingDuration="1067.33" maxHaltingDuration="1071.00" haltingDurationSum="6404.00" meanIntervalHaltingDuration="100.00" maxIntervalHaltingDuration="100.00" intervalHaltingDurationSum="600.00" startedHalts="0.00" meanVehicleNumber="6.00" maxVehicleNumber="6" />
   <interval begin="25200.00" end="25300.00" id="e2_L197#2_3_1" sampledSeconds="600.00" nVehEntered="0" nVehLeft="0" nVehSeen="6" meanSpeed="0.00" meanTimeLoss="100.00" meanOccupancy="66.54" maxOccupancy="66.54" meanMaxJamLengthInVehicles="6.00" meanMaxJamLengthInMeters="39.58" maxJamLengthInVehicles="6" maxJamLengthInMeters="39.58" jamLengthInVehiclesSum="600" jamLengthInMetersSum="3957.51" meanHaltingDuration="1167.33" maxHaltingDuration="1171.00" haltingDurationSum="7004.00" meanIntervalHaltingDuration="100.00" maxIntervalHaltingDuration="100.00" intervalHaltingDurationSum="600.00" startedHalts="0.00" meanVehicleNumber="6.00" maxVehicleNumber="6" />
   <interval begin="25300.00" end="25400.00" id="e2_L197#2_3_1" sampledSeconds="600.00" nVehEntered="0" nVehLeft="0" nVehSeen="6" meanSpeed="0.00" meanTimeLoss="100.00" meanOccupancy="66.54" maxOccupancy="66.54" meanMaxJamLengthInVehicles="6.00" meanMaxJamLengthInMeters="39.58" maxJamLengthInVehicles="6" maxJamLengthInMeters="39.58" jamLengthInVehiclesSum="600" jamLengthInMetersSum="3957.51" meanHaltingDuration="1267.33" maxHaltingDuration="1271.00" haltingDurationSum="7604.00" meanIntervalHaltingDuration="100.00" maxIntervalHaltingDuration="100.00" intervalHaltingDurationSum="600.00" startedHalts="0.00" meanVehicleNumber="6.00" maxVehicleNumber="6" />
   <interval begin="25400.00" end="25500.00" id="e2_L197#2_3_1" sampledSeconds="544.31" nVehEntered="6" nVehLeft="8" nVehSeen="12" meanSpeed="0.55" meanTimeLoss="43.35" meanOccupancy="60.24" maxOccupancy="68.86" meanMaxJamLengthInVehicles="4.37" meanMaxJamLengthInMeters="28.88" maxJamLengthInVehicles="6" maxJamLengthInMeters="41.70" jamLengthInVehiclesSum="439" jamLengthInMetersSum="2896.01" meanHaltingDuration="424.00" maxHaltingDuration="1303.00" haltingDurationSum="8056.00" meanIntervalHaltingDuration="23.79" maxIntervalHaltingDuration="37.00" intervalHaltingDurationSum="452.00" startedHalts="13.00" meanVehicleNumber="5.51" maxVehicleNumber="6" />
   <interval begin="25500.00" end="25600.00" id="e2_L197#2_3_1" sampledSeconds="570.03" nVehEntered="4" nVehLeft="4" nVehSeen="8" meanSpeed="0.29" meanTimeLoss="69.57" meanOccupancy="64.47" maxOccupancy="68.87" meanMaxJamLengthInVehicles="5.00" meanMaxJamLengthInMeters="32.90" maxJamLengthInVehicles="6" maxJamLengthInMeters="41.21" jamLengthInVehiclesSum="502" jamLengthInMetersSum="3298.62" meanHaltingDuration="26.10" maxHaltingDuration="57.00" haltingDurationSum="522.00" meanIntervalHaltingDuration="26.10" maxIntervalHaltingDuration="57.00" intervalHaltingDurationSum="522.00" startedHalts="21.00" meanVehicleNumber="5.75" maxVehicleNumber="6" />
   <interval begin="25600.00" end="25700.00" id="e2_L197#2_3_1" sampledSeconds="497.42" nVehEntered="13" nVehLeft="11" nVehSeen="17" meanSpeed="1.05" meanTimeLoss="26.80" meanOccupancy="55.44" maxOccupancy="68.87" meanMaxJamLengthInVehicles="3.03" meanMaxJamLengthInMeters="19.64" maxJamLengthInVehicles="6" maxJamLengthInMeters="39.75" jamLengthInVehiclesSum="304" jamLengthInMetersSum="1968.31" meanHaltingDuration="13.77" maxHaltingDuration="54.00" haltingDurationSum="358.00" meanIntervalHaltingDuration="12.65" maxIntervalHaltingDuration="54.00" intervalHaltingDurationSum="329.00" startedHalts="26.00" meanVehicleNumber="5.10" maxVehicleNumber="6" />
   <interval begin="25700.00" end="25800.00" id="e2_L197#2_3_1" sampledSeconds="600.00" nVehEntered="0" nVehLeft="0" nVehSeen="6" meanSpeed="0.00" meanTimeLoss="100.00" meanOccupancy="68.86" maxOccupancy="68.86" meanMaxJamLengthInVehicles="6.00" meanMaxJamLengthInMeters="39.58" maxJamLengthInVehicles="6" maxJamLengthInMeters="39.58" jamLengthInVehiclesSum="600" jamLengthInMetersSum="3957.51" meanHaltingDuration="149.00" maxHaltingDuration="154.00" haltingDurationSum="894.00" meanIntervalHaltingDuration="100.00" maxIntervalHaltingDuration="100.00" intervalHaltingDurationSum="600.00" startedHalts="0.00" meanVehicleNumber="6.00" maxVehicleNumber="6" />
   <interval begin="25800.00" end="25900.00" id="e2_L197#2_3_1" sampledSeconds="593.15" nVehEntered="1" nVehLeft="1" nVehSeen="7" meanSpeed="0.07" meanTimeLoss="84.24" meanOccupancy="67.76" maxOccupancy="68.87" meanMaxJamLengthInVehicles="5.77" meanMaxJamLengthInMeters="38.09" maxJamLengthInVehicles="6" maxJamLengthInMeters="41.30" jamLengthInVehiclesSum="580" jamLengthInMetersSum="3822.64" meanHaltingDuration="123.33" maxHaltingDuration="208.00" haltingDurationSum="1480.00" meanIntervalHaltingDuration="48.83" maxIntervalHaltingDuration="60.00" intervalHaltingDurationSum="586.00" startedHalts="6.00" meanVehicleNumber="5.94" maxVehicleNumber="6" />