<?xml version="1.0" encoding="UTF-8"?>

<!-- generated on Sun Feb 17 15:57:00 2019 by 
<configuration xmlns:xsi="http://www.w3.org/2001/XMLSchema-instance" xsi:noNamespaceSchemaLocation="http://sumo.dlr.de/xsd/Configuration.xsd">

    <input>
        <net-file value="/home/sda/Documents/sumo-sathorn-ray/models/sathorn-morning/sathorn_w_fixed_20160404.net.xml"/>
        <route-files value="/home/sda/Documents/sumo-sathorn-ray/models/sathorn-morning/Great-route/sathorn_w_20160422edit2.rou.xml"/>
        <additional-files value="/home/sda/Documents/sumo-sathorn-ray/models/sathorn-morning/sathon_wide_tls_20160418_edited.add.xml,/home/sda/Documents/sumo-sathorn-ray/detectors/sathorn_w_detectors.add.xml"/>
    </input>

    <time>
        <begin value="21600"/>
        <end value="32400"/>
        <step-length value="1"/>
    </time>

    <processing>
        <no-internal-links value="true"/>
        <ignore-junction-blocker value="-1"/>
        <time-to-teleport value="-1"/>
        <eager-insert value="true"/>
        <time-to-impatience value="300"/>
    </processing>

    <report>
        <no-warnings value="true"/>
    </report>

    <random_number>
        <random value="false"/>
        <seed value="20"/>
    </random_number>

    <gui_only>
        <gui-settings-file value="/home/sda/Documents/sumo-sathorn-ray/gui-settings/gui-settings-file-surasak.xml"/>
        <quit-on-end value="true"/>
        <start value="true"/>
        <tracker-interval value="1"/>
    </gui_only>

</configuration>
-->

<detector xmlns:xsi="http://www.w3.org/2001/XMLSchema-instance" xsi:noNamespaceSchemaLocation="http://sumo.dlr.de/xsd/det_e2_file.xsd">
   <interval begin="21600.00" end="21700.00" id="e2_L193#2_2_1" sampledSeconds="0.00" nVehEntered="0" nVehLeft="0" nVehSeen="0" meanSpeed="-1.00" meanTimeLoss="-1.00" meanOccupancy="0.00" maxOccupancy="0.00" meanMaxJamLengthInVehicles="0.00" meanMaxJamLengthInMeters="0.00" maxJamLengthInVehicles="0" maxJamLengthInMeters="0.00" jamLengthInVehiclesSum="0" jamLengthInMetersSum="0.00" meanHaltingDuration="0.00" maxHaltingDuration="0.00" haltingDurationSum="0.00" meanIntervalHaltingDuration="0.00" maxIntervalHaltingDuration="0.00" intervalHaltingDurationSum="0.00" startedHalts="0.00" meanVehicleNumber="0.00" maxVehicleNumber="0" />
   <interval begin="21700.00" end="21800.00" id="e2_L193#2_2_1" sampledSeconds="0.00" nVehEntered="0" nVehLeft="0" nVehSeen="0" meanSpeed="-1.00" meanTimeLoss="-1.00" meanOccupancy="0.00" maxOccupancy="0.00" meanMaxJamLengthInVehicles="0.00" meanMaxJamLengthInMeters="0.00" maxJamLengthInVehicles="0" maxJamLengthInMeters="0.00" jamLengthInVehiclesSum="0" jamLengthInMetersSum="0.00" meanHaltingDuration="0.00" maxHaltingDuration="0.00" haltingDurationSum="0.00" meanIntervalHaltingDuration="0.00" maxIntervalHaltingDuration="0.00" intervalHaltingDurationSum="0.00" startedHalts="0.00" meanVehicleNumber="0.00" maxVehicleNumber="0" />
   <interval begin="21800.00" end="21900.00" id="e2_L193#2_2_1" sampledSeconds="40.87" nVehEntered="11" nVehLeft="11" nVehSeen="11" meanSpeed="11.73" meanTimeLoss="0.23" meanOccupancy="1.78" maxOccupancy="14.06" meanMaxJamLengthInVehicles="0.00" meanMaxJamLengthInMeters="0.00" maxJamLengthInVehicles="0" maxJamLengthInMeters="0.00" jamLengthInVehiclesSum="0" jamLengthInMetersSum="0.00" meanHaltingDuration="0.00" maxHaltingDuration="0.00" haltingDurationSum="0.00" meanIntervalHaltingDuration="0.00" maxIntervalHaltingDuration="0.00" intervalHaltingDurationSum="0.00" startedHalts="0.00" meanVehicleNumber="0.47" maxVehicleNumber="3" />
   <interval begin="21900.00" end="22000.00" id="e2_L193#2_2_1" sampledSeconds="48.40" nVehEntered="10" nVehLeft="10" nVehSeen="10" meanSpeed="11.76" meanTimeLoss="0.29" meanOccupancy="2.23" maxOccupancy="14.06" meanMaxJamLengthInVehicles="0.00" meanMaxJamLengthInMeters="0.00" maxJamLengthInVehicles="0" maxJamLengthInMeters="0.00" jamLengthInVehiclesSum="0" jamLengthInMetersSum="0.00" meanHaltingDuration="0.00" maxHaltingDuration="0.00" haltingDurationSum="0.00" meanIntervalHaltingDuration="0.00" maxIntervalHaltingDuration="0.00" intervalHaltingDurationSum="0.00" startedHalts="0.00" meanVehicleNumber="0.54" maxVehicleNumber="3" />
   <interval begin="22000.00" end="22100.00" id="e2_L193#2_2_1" sampledSeconds="75.20" nVehEntered="18" nVehLeft="16" nVehSeen="18" meanSpeed="11.33" meanTimeLoss="0.39" meanOccupancy="3.55" maxOccupancy="23.44" meanMaxJamLengthInVehicles="0.00" meanMaxJamLengthInMeters="0.00" maxJamLengthInVehicles="0" maxJamLengthInMeters="0.00" jamLengthInVehiclesSum="0" jamLengthInMetersSum="0.00" meanHaltingDuration="0.00" maxHaltingDuration="0.00" haltingDurationSum="0.00" meanIntervalHaltingDuration="0.00" maxIntervalHaltingDuration="0.00" intervalHaltingDurationSum="0.00" startedHalts="0.00" meanVehicleNumber="0.84" maxVehicleNumber="5" />
   <interval begin="22100.00" end="22200.00" id="e2_L193#2_2_1" sampledSeconds="109.04" nVehEntered="26" nVehLeft="28" nVehSeen="28" meanSpeed="11.47" meanTimeLoss="0.31" meanOccupancy="4.85" maxOccupancy="23.44" meanMaxJamLengthInVehicles="0.00" meanMaxJamLengthInMeters="0.00" maxJamLengthInVehicles="0" maxJamLengthInMeters="0.00" jamLengthInVehiclesSum="0" jamLengthInMetersSum="0.00" meanHaltingDuration="0.00" maxHaltingDuration="0.00" haltingDurationSum="0.00" meanIntervalHaltingDuration="0.00" maxIntervalHaltingDuration="0.00" intervalHaltingDurationSum="0.00" startedHalts="0.00" meanVehicleNumber="1.21" maxVehicleNumber="5" />
   <interval begin="22200.00" end="22300.00" id="e2_L193#2_2_1" sampledSeconds="175.33" nVehEntered="31" nVehLeft="25" nVehSeen="31" meanSpeed="7.53" meanTimeLoss="2.24" meanOccupancy="8.06" maxOccupancy="30.18" meanMaxJamLengthInVehicles="0.42" meanMaxJamLengthInMeters="2.63" maxJamLengthInVehicles="5" maxJamLengthInMeters="32.71" jamLengthInVehiclesSum="42" jamLengthInMetersSum="263.12" meanHaltingDuration="9.40" maxHaltingDuration="15.00" haltingDurationSum="47.00" meanIntervalHaltingDuration="9.40" maxIntervalHaltingDuration="15.00" intervalHaltingDurationSum="47.00" startedHalts="5.00" meanVehicleNumber="1.92" maxVehicleNumber="7" />
   <interval begin="22300.00" end="22400.00" id="e2_L193#2_2_1" sampledSeconds="599.08" nVehEntered="15" nVehLeft="11" nVehSeen="21" meanSpeed="1.02" meanTimeLoss="26.20" meanOccupancy="27.65" maxOccupancy="44.74" meanMaxJamLengthInVehicles="5.26" meanMaxJamLengthInMeters="35.51" maxJamLengthInVehicles="8" maxJamLengthInMeters="56.91" jamLengthInVehiclesSum="526" jamLengthInMetersSum="3550.65" meanHaltingDuration="55.75" maxHaltingDuration="110.00" haltingDurationSum="446.00" meanIntervalHaltingDuration="53.50" maxIntervalHaltingDuration="100.00" intervalHaltingDurationSum="428.00" startedHalts="6.00" meanVehicleNumber="6.04" maxVehicleNumber="10" />
   <interval begin="22400.00" end="22500.00" id="e2_L193#2_2_1" sampledSeconds="1418.75" nVehEntered="6" nVehLeft="1" nVehSeen="16" meanSpeed="0.10" meanTimeLoss="87.97" meanOccupancy="63.53" maxOccupancy="66.14" meanMaxJamLengthInVehicles="13.88" meanMaxJamLengthInMeters="91.86" maxJamLengthInVehicles="15" maxJamLengthInMeters="98.39" jamLengthInVehiclesSum="1388" jamLengthInMetersSum="9185.74" meanHaltingDuration="122.73" maxHaltingDuration="210.00" haltingDurationSum="1841.00" meanIntervalHaltingDuration="93.00" maxIntervalHaltingDuration="100.00" intervalHaltingDurationSum="1395.00" startedHalts="7.00" meanVehicleNumber="14.22" maxVehicleNumber="15" />
   <interval begin="22500.00" end="22600.00" id="e2_L193#2_2_1" sampledSeconds="1500.00" nVehEntered="0" nVehLeft="0" nVehSeen="15" meanSpeed="0.00" meanTimeLoss="100.00" meanOccupancy="66.14" maxOccupancy="66.14" meanMaxJamLengthInVehicles="15.00" meanMaxJamLengthInMeters="98.39" maxJamLengthInVehicles="15" maxJamLengthInMeters="98.39" jamLengthInVehiclesSum="1500" jamLengthInMetersSum="9838.64" meanHaltingDuration="222.73" maxHaltingDuration="310.00" haltingDurationSum="3341.00" meanIntervalHaltingDuration="100.00" maxIntervalHaltingDuration="100.00" intervalHaltingDurationSum="1500.00" startedHalts="0.00" meanVehicleNumber="15.00" maxVehicleNumber="15" />
   <interval begin="22600.00" end="22700.00" id="e2_L193#2_2_1" sampledSeconds="1500.00" nVehEntered="0" nVehLeft="0" nVehSeen="15" meanSpeed="0.00" meanTimeLoss="100.00" meanOccupancy="66.14" maxOccupancy="66.14" meanMaxJamLengthInVehicles="15.00" meanMaxJamLengthInMeters="98.39" maxJamLengthInVehicles="15" maxJamLengthInMeters="98.39" jamLengthInVehiclesSum="1500" jamLengthInMetersSum="9838.64" meanHaltingDuration="322.73" maxHaltingDuration="410.00" haltingDurationSum="4841.00" meanIntervalHaltingDuration="100.00" maxIntervalHaltingDuration="100.00" intervalHaltingDurationSum="1500.00" startedHalts="0.00" meanVehicleNumber="15.00" maxVehicleNumber="15" />
   <interval begin="22700.00" end="22800.00" id="e2_L193#2_2_1" sampledSeconds="1500.00" nVehEntered="0" nVehLeft="0" nVehSeen="15" meanSpeed="0.00" meanTimeLoss="100.00" meanOccupancy="66.14" maxOccupancy="66.14" meanMaxJamLengthInVehicles="15.00" meanMaxJamLengthInMeters="98.39" maxJamLengthInVehicles="15" maxJamLengthInMeters="98.39" jamLengthInVehiclesSum="1500" jamLengthInMetersSum="9838.64" meanHaltingDuration="422.73" maxHaltingDuration="510.00" haltingDurationSum="6341.00" meanIntervalHaltingDuration="100.00" maxIntervalHaltingDuration="100.00" intervalHaltingDurationSum="1500.00" startedHalts="0.00" meanVehicleNumber="15.00" maxVehicleNumber="15" />
   <interval begin="22800.00" end="22900.00" id="e2_L193#2_2_1" sampledSeconds="1500.00" nVehEntered="0" nVehLeft="0" nVehSeen="15" meanSpeed="0.00" meanTimeLoss="100.00" meanOccupancy="66.14" maxOccupancy="66.14" meanMaxJamLengthInVehicles="15.00" meanMaxJamLengthInMeters="