<?xml version="1.0" encoding="UTF-8"?>

<!-- generated on Sun Feb 17 15:57:00 2019 by 
<configuration xmlns:xsi="http://www.w3.org/2001/XMLSchema-instance" xsi:noNamespaceSchemaLocation="http://sumo.dlr.de/xsd/Configuration.xsd">

    <input>
        <net-file value="/home/sda/Documents/sumo-sathorn-ray/models/sathorn-morning/sathorn_w_fixed_20160404.net.xml"/>
        <route-files value="/home/sda/Documents/sumo-sathorn-ray/models/sathorn-morning/Great-route/sathorn_w_20160422edit2.rou.xml"/>
        <additional-files value="/home/sda/Documents/sumo-sathorn-ray/models/sathorn-morning/sathon_wide_tls_20160418_edited.add.xml,/home/sda/Documents/sumo-sathorn-ray/detectors/sathorn_w_detectors.add.xml"/>
    </input>

    <time>
        <begin value="21600"/>
        <end value="32400"/>
        <step-length value="1"/>
    </time>

    <processing>
        <no-internal-links value="true"/>
        <ignore-junction-blocker value="-1"/>
        <time-to-teleport value="-1"/>
        <eager-insert value="true"/>
        <time-to-impatience value="300"/>
    </processing>

    <report>
        <no-warnings value="true"/>
    </report>

    <random_number>
        <random value="false"/>
        <seed value="20"/>
    </random_number>

    <gui_only>
        <gui-settings-file value="/home/sda/Documents/sumo-sathorn-ray/gui-settings/gui-settings-file-surasak.xml"/>
        <quit-on-end value="true"/>
        <start value="true"/>
        <tracker-interval value="1"/>
    </gui_only>

</configuration>
-->

<detector xmlns:xsi="http://www.w3.org/2001/XMLSchema-instance" xsi:noNamespaceSchemaLocation="http://sumo.dlr.de/xsd/det_e2_file.xsd">
   <interval begin="21600.00" end="21700.00" id="e2_L193#1_0_2" sampledSeconds="0.00" nVehEntered="0" nVehLeft="0" nVehSeen="0" meanSpeed="-1.00" meanTimeLoss="-1.00" meanOccupancy="0.00" maxOccupancy="0.00" meanMaxJamLengthInVehicles="0.00" meanMaxJamLengthInMeters="0.00" maxJamLengthInVehicles="0" maxJamLengthInMeters="0.00" jamLengthInVehiclesSum="0" jamLengthInMetersSum="0.00" meanHaltingDuration="0.00" maxHaltingDuration="0.00" haltingDurationSum="0.00" meanIntervalHaltingDuration="0.00" maxIntervalHaltingDuration="0.00" intervalHaltingDurationSum="0.00" startedHalts="0.00" meanVehicleNumber="0.00" maxVehicleNumber="0" />
   <interval begin="21700.00" end="21800.00" id="e2_L193#1_0_2" sampledSeconds="0.00" nVehEntered="0" nVehLeft="0" nVehSeen="0" meanSpeed="-1.00" meanTimeLoss="-1.00" meanOccupancy="0.00" maxOccupancy="0.00" meanMaxJamLengthInVehicles="0.00" meanMaxJamLengthInMeters="0.00" maxJamLengthInVehicles="0" maxJamLengthInMeters="0.00" jamLengthInVehiclesSum="0" jamLengthInMetersSum="0.00" meanHaltingDuration="0.00" maxHaltingDuration="0.00" haltingDurationSum="0.00" meanIntervalHaltingDuration="0.00" maxIntervalHaltingDuration="0.00" intervalHaltingDurationSum="0.00" startedHalts="0.00" meanVehicleNumber="0.00" maxVehicleNumber="0" />
   <interval begin="21800.00" end="21900.00" id="e2_L193#1_0_2" sampledSeconds="302.21" nVehEntered="16" nVehLeft="14" nVehSeen="16" meanSpeed="11.82" meanTimeLoss="1.02" meanOccupancy="5.82" maxOccupancy="14.12" meanMaxJamLengthInVehicles="0.00" meanMaxJamLengthInMeters="0.00" maxJamLengthInVehicles="0" maxJamLengthInMeters="0.00" jamLengthInVehiclesSum="0" jamLengthInMetersSum="0.00" meanHaltingDuration="0.00" maxHaltingDuration="0.00" haltingDurationSum="0.00" meanIntervalHaltingDuration="0.00" maxIntervalHaltingDuration="0.00" intervalHaltingDurationSum="0.00" startedHalts="0.00" meanVehicleNumber="3.19" maxVehicleNumber="8" />
   <interval begin="21900.00" end="22000.00" id="e2_L193#1_0_2" sampledSeconds="376.35" nVehEntered="23" nVehLeft="23" nVehSeen="25" meanSpeed="11.58" meanTimeLoss="0.99" meanOccupancy="7.20" maxOccupancy="13.71" meanMaxJamLengthInVehicles="0.00" meanMaxJamLengthInMeters="0.00" maxJamLengthInVehicles="0" maxJamLengthInMeters="0.00" jamLengthInVehiclesSum="0" jamLengthInMetersSum="0.00" meanHaltingDuration="0.00" maxHaltingDuration="0.00" haltingDurationSum="0.00" meanIntervalHaltingDuration="0.00" maxIntervalHaltingDuration="0.00" intervalHaltingDurationSum="0.00" startedHalts="0.00" meanVehicleNumber="3.99" maxVehicleNumber="7" />
   <interval begin="22000.00" end="22100.00" id="e2_L193#1_0_2" sampledSeconds="541.15" nVehEntered="28" nVehLeft="23" nVehSeen="30" meanSpeed="11.70" meanTimeLoss="1.13" meanOccupancy="10.50" maxOccupancy="19.59" meanMaxJamLengthInVehicles="0.00" meanMaxJamLengthInMeters="0.00" maxJamLengthInVehicles="0" maxJamLengthInMeters="0.00" jamLengthInVehiclesSum="0" jamLengthInMetersSum="0.00" meanHaltingDuration="0.00" maxHaltingDuration="0.00" haltingDurationSum="0.00" meanIntervalHaltingDuration="0.00" maxIntervalHaltingDuration="0.00" intervalHaltingDurationSum="0.00" startedHalts="0.00" meanVehicleNumber="5.65" maxVehicleNumber="10" />
   <interval begin="22100.00" end="22200.00" id="e2_L193#1_0_2" sampledSeconds="366.50" nVehEntered="16" nVehLeft="23" nVehSeen="23" meanSpeed="11.75" meanTimeLoss="0.96" meanOccupancy="6.96" maxOccupancy="13.71" meanMaxJamLengthInVehicles="0.00" meanMaxJamLengthInMeters="0.00" maxJamLengthInVehicles="0" maxJamLengthInMeters="0.00" jamLengthInVehiclesSum="0" jamLengthInMetersSum="0.00" meanHaltingDuration="0.00" maxHaltingDuration="0.00" haltingDurationSum="0.00" meanIntervalHaltingDuration="0.00" maxIntervalHaltingDuration="0.00" intervalHaltingDurationSum="0.00" startedHalts="0.00" meanVehicleNumber="3.84" maxVehicleNumber="8" />
   <interval begin="22200.00" end="22300.00" id="e2_L193#1_0_2" sampledSeconds="627.95" nVehEntered="35" nVehLeft="31" nVehSeen="35" meanSpeed="11.63" meanTimeLoss="1.14" meanOccupancy="12.10" maxOccupancy="17.63" meanMaxJamLengthInVehicles="0.00" meanMaxJamLengthInMeters="0.00" maxJamLengthInVehicles="0" maxJamLengthInMeters="0.00" jamLengthInVehiclesSum="0" jamLengthInMetersSum="0.00" meanHaltingDuration="0.00" maxHaltingDuration="0.00" haltingDurationSum="0.00" meanIntervalHaltingDuration="0.00" maxIntervalHaltingDuration="0.00" intervalHaltingDurationSum="0.00" startedHalts="0.00" meanVehicleNumber="6.62" maxVehicleNumber="9" />
   <interval begin="22300.00" end="22400.00" id="e2_L193#1_0_2" sampledSeconds="337.26" nVehEntered="21" nVehLeft="17" nVehSeen="25" meanSpeed="11.68" meanTimeLoss="0.85" meanOccupancy="6.49" maxOccupancy="15.67" meanMaxJamLengthInVehicles="0.00" meanMaxJamLengthInMeters="0.00" maxJamLengthInVehicles="0" maxJamLengthInMeters="0.00" jamLengthInVehiclesSum="0" jamLengthInMetersSum="0.00" meanHaltingDuration="0.00" maxHaltingDuration="0.00" haltingDurationSum="0.00" meanIntervalHaltingDuration="0.00" maxIntervalHaltingDuration="0.00" intervalHaltingDurationSum="0.00" startedHalts="0.00" meanVehicleNumber="3.51" maxVehicleNumber="8" />
   <interval begin="22400.00" end="22500.00" id="e2_L193#1_0_2" sampledSeconds="1242.74" nVehEntered="17" nVehLeft="11" nVehSeen="25" meanSpeed="2.96" meanTimeLoss="37.95" meanOccupancy="24.17" maxOccupancy="29.16" meanMaxJamLengthInVehicles="8.44" meanMaxJamLengthInMeters="57.34" maxJamLengthInVehicles="14" maxJamLengthInMeters="95.51" jamLengthInVehiclesSum="844" jamLengthInMetersSum="5733.62" meanHaltingDuration="50.65" maxHaltingDuration="75.00" haltingDurationSum="861.00" meanIntervalHaltingDuration="50.65" maxIntervalHaltingDuration="75.00" intervalHaltingDurationSum="861.00" startedHalts="18.00" meanVehicleNumber="12.53" maxVehicleNumber="15" />
   <interval begin="22500.00" end="22600.00" id="e2_L193#1_0_2" sampledSeconds="1701.82" nVehEntered="15" nVehLeft="8" nVehSeen="29" meanSpeed="0.94" meanTimeLoss="54.26" meanOccupancy="33.19" maxOccupancy="42.87" meanMaxJamLengthInVehicles="15.41" meanMaxJamLengthInMeters="105.37" maxJamLengthInVehicles="19" maxJamLengthInMeters="130.51" jamLengthInVehiclesSum="1541" jamLengthInMetersSum="10536.88" meanHaltingDuration="120.25" maxHaltingDuration="175.00" haltingDurationSum="2405.00" meanIntervalHaltingDuration="77.35" maxIntervalHaltingDuration="100.00" intervalHaltingDurationSum="1547.00" startedHalts="7.00" meanVehicleNumber="17.11" maxVehicleNumber="22" />
   <interval begin="22600.00" end="22700.00" id="e2_L193#1_0_2" sampledSeconds="2761.91" nVehEntered="18" nVehLeft="5" nVehSeen="39" meanSpeed="0.34" meanTimeLoss="68.90" meanOccupancy="53.98" maxOccupancy="66.37" meanMaxJamLengthInVehicles="26.30" meanMaxJamLengthInMeters="181.54" maxJamLengthInVehicles="34" maxJamLengthInMeters="235.66" jamLengthInVehiclesSum="2630" jamLengthInMetersSum="18154.19" meanHaltingDuration="144.28" maxHaltingDuration="275.00" haltingDurationSum="5050.00" meanIntervalHaltingDuration="75.57" maxIntervalHaltingDuration="100.00" intervalHaltingDurationSum="2645.00" startedHalts="15.00" meanVehicleNumber="27.71" maxVehicleNumber="34" />
   <interval begin="22700.00" end="22800.00" id="e2_L193#1_0_2" sampledSeconds="3400.00" nVehEntered="0" nVehLeft="0" nVehSeen="34" meanSpeed="0.00" meanTimeLoss="100.00" meanOccupancy="66.37" maxOccupancy="66.37" meanMaxJamLengthInVehicles="34.00" meanMaxJamLengthInMeters="235.32" maxJamLengthInVehicles="34" maxJamLengthInMeters="235.32" jamLengthInVehiclesSum="3400" jamLengthInMetersSum="23532.42" meanHaltingDuration="248.50" maxHaltingDuration="375.00" haltingDurationSum="8449.00" meanIntervalHaltingDuration="100.00" maxIntervalHaltingDuration="100.00" intervalHaltingDurationSum="3400.00" startedHalts="0.00" meanVehicleNumber="34.00" maxVehicleNumber="34" />
   <interval begin="22800.00" end="22900.00" id="e2_L193#1_0_2" sampledSeconds="3400.00" nVehEntered="0" nVehLeft="0" nVehSeen="34" meanSpeed="0.00" meanTimeLoss="100.00" meanOccupancy="66.37" maxOccupancy="66.37" meanMaxJamLengthInVehicles="34.00" meanMaxJamLengthInMeters="235.32" maxJamLengthInVehicles="34" maxJamLengthInMeters="235.32" jamLengthInVehiclesSum="3400" jamLengthInMetersSum="23532.42" meanHaltingDuration="348.50" maxHaltingDuration="475.00" haltingDurationSum="11849.00" meanIntervalHaltingDuration="100.00" maxIntervalHaltingDuration="100.00" intervalHaltingDurationSum="3400.00" startedHalts="0.00" meanVehicleNumber="34.00" maxVehicleNumber="34" />
   <interval begin="22900.00" end="23000.00" id="e2_L193#1_0_2" sampledSeconds="3400.00" nVehEntered="0" nVehLeft="0" nVehSeen="34" meanSpeed="0.00" meanTimeLoss="100.00" meanOccupancy="66.37" maxOccupancy="66.37" meanMaxJamLengthInVehicles="34.00" meanMaxJamLengthInMeters="235.32" maxJamLengthInVehicles="34" maxJamLengthInMeters="235.32" jamLengthInVehiclesSum="3400" jamLengthInMetersSum="23532.42" meanHaltingDuration="448.50" maxHaltingDuration="575.00" haltingDurationSum="15249.00" meanIntervalHaltingDuration="100.00" maxIntervalHaltingDuration="100.00" intervalHaltingDurationSum="3400.00" startedHalts="0.00" meanVehicleNumber="34.00" maxVehicleNumber="34" />
   <interval begin="23000.00" end="23100.00" id="e2_L193#1_0_2" sampledSeconds="3400.00" nVehEntered="0" nVehLeft="0" nVehSeen="34" meanSpeed="0.00" meanTimeLoss="100.00" meanOccupancy="66.37" maxOccupancy="66.37" meanMaxJamLengthInVehicles="34.00" meanMaxJamLengthInMeters="235.32" maxJamLengthInVehicles="34" maxJamLengthInMeters="235.32" jamLengthInVehiclesSum="3400" jamLengthInMetersSum="23532.42" meanHaltingDuration="548.50" maxHaltingDuration="675.00" haltingDurationSum="18649.00" meanIntervalHaltingDuration="100.00" maxIntervalHaltingDuration="100.00" intervalHaltingDurationSum="3400.00" startedHalts="0.00" meanVehicleNumber="34.00" maxVehicleNumber="34" />
   <interval begin="23100.00" end="23200.00" id="e2_L193#1_0_2" sampledSeconds="3400.00" nVehEntered="0" nVehLeft="0" nVehSeen="34" meanSpeed="0.00" meanTimeLoss="100.00" meanOccupancy="66.37" maxOccupancy="66.37" meanMaxJamLengthInVehicles="34.00" meanMaxJamLengthInMeters="235.32" maxJamLengthInVehicles="34" maxJamLengthInMeters="235.32" jamLengthInVehiclesSum="3400" jamLengthInMetersSum="23532.42" meanHaltingDuration="648.50" maxHaltingDuration="775.00" haltingDurationSum="22049.00" meanIntervalHaltingDuration="100.00" maxIntervalHaltingDuration="100.00" intervalHaltingDurationSum="3400.00" startedHalts="0.00" meanVehicleNumber="34.00" maxVehicleNumber="34" />
   <interval begin="23200.00" end="23300.00" id="e2_L193#1_0_2" sampledSeconds="3400.00" nVehEntered="0" nVehLeft="0" nVehSeen="34" meanSpeed="0.00" meanTimeLoss="100.00" meanOccupancy="66.37" maxOccupancy="66.37" meanMaxJamLengthInVehicles="34.00" meanMaxJamLengthInMeters="235.32" maxJamLengthInVehicles="34" maxJamLengthInMeters="235.32" jamLengthInVehiclesSum="3400" jamLengthInMetersSum="23532.42" meanHaltingDuration="748.50" maxHaltingDuration="875.00" haltingDurationSum="25449.00" meanIntervalHaltingDuration="100.00" maxIntervalHaltingDuration="100.00" intervalHaltingDurationSum="3400.00" startedHalts="0.00" meanVehicleNumber="34.00" maxVehicleNumber="34" />
   <interval begin="23300.00" end="23400.00" id="e2_L193#1_0_2" sampledSeconds="3400.00" nVehEntered="0" nVehLeft="0" nVehSeen="34" meanSpeed="0.00" meanTimeLoss="100.00" meanOccupancy="66.37" maxOccupancy="66.37" meanMaxJamLengthInVehicles="34.00" meanMaxJamLengthInMeters="235.32" maxJamLengthInVehicles="34" maxJamLengthInMeters="235.32" jamLengthInVehiclesSum="3400" jamLengthInMetersSum="23532.42" meanHaltingDuration="848.50" maxHaltingDuration="975.00" haltingDurationSum="28849.00" meanIntervalHaltingDuration="100.00" maxIntervalHaltingDuration="100.00" intervalHaltingDurationSum="3400.00" startedHalts="0.00" meanVehicleNumber="34.00" maxVehicleNumber="34" />
   <interval begin="23400.00" end="23500.00" id="e2_L193#1_0_2" sampledSeconds="3400.00" nVehEntered="0" nVehLeft="0" nVehSeen="34" meanSpeed="0.00" meanTimeLoss="100.00" meanOccupancy="66.37" maxOccupancy="66.37" meanMaxJamLengthInVehicles="34.00" meanMaxJamLengthInMeters="235.32" maxJamLengthInVehicles="34" maxJamLengthInMeters="235.32" jamLengthInVehiclesSum="3400" jamLengthInMetersSum="23532.42" meanHaltingDuration="948.50" maxHaltingDuration="1075.00" haltingDurationSum="32249.00" meanIntervalHaltingDuration="100.00" maxIntervalHaltingDuration="100.00" intervalHaltingDurationSum="3400.00" startedHalts="0.00" meanVehicleNumber="34.00" maxVehicleNumber="34" />
   <interval begin="23500.00" end="23600.00" id="e2_L193#1_0_2" sampledSeconds="3060.86" nVehEntered="7" nVehLeft="7" nVehSeen="41" meanSpeed="0.55" meanTimeLoss="71.38" meanOccupancy="59.38" maxOccupancy="66.37" meanMaxJamLengthInVehicles="22.61" meanMaxJamLengthInMeters="158.62" maxJamLengthInVehicles="34" maxJamLengthInMeters="239.66" jamLengthInVehiclesSum="2352" jamLengthInMetersSum="16389.50" meanHaltingDuration="203.87" maxHaltingDuration="1094.00" haltingDurationSum="33639.00" meanIntervalHaltingDuration="14.94" maxIntervalHaltingDuration="65.00" intervalHaltingDurationSum="2465.00" startedHalts="134.00" meanVehicleNumber="30.67" maxVehicleNumber="34" />
   <interval begin="23600.00" end="23700.00" id="e2_L193#1_0_2" sampledSeconds="3400.00" nVehEntered="0" nVehLeft="0" nVehSeen="34" meanSpeed="0.00" meanTimeLoss="99.98" meanOccupancy="66.37" maxOccupancy="66.37" meanMaxJamLengthInVehicles="34.00" meanMaxJamLengthInMeters="235.39" maxJamLengthInVehicles="34" maxJamLengthInMeters="236.40" jamLengthInVehiclesSum="3400" jamLengthInMetersSum="23539.32" meanHaltingDuration="128.91" maxHaltingDuration="154.00" haltingDurationSum="4383.00" meanIntervalHaltingDuration="100.00" maxIntervalHaltingDuration="100.00" intervalHaltingDurationSum="3400.00" startedHalts="0.00" meanVehicleNumber="34.00" maxVehicleNumber="34" />
   <interval begin="23700.00" end="23800.00" id="e2_L193#1_0_2" sampledSeconds="3400.00" nVehEntered="0" nVehLeft="0" nVehSeen="34" meanSpeed="0.00" meanTimeLoss="100.00" meanOccupancy="66.37" maxOccupancy="66.37" meanMaxJamLengthInVehicles="34.00" meanMaxJamLengthInMeters="235.32" maxJamLengthInVehicles="34" maxJamLengthInMeters="235.32" jamLengthInVehiclesSum="3400" jamLengthInMetersSum="23532.41" meanHaltingDuration="228.91" maxHaltingDuration="254.00" haltingDurationSum="7783.00" meanIntervalHaltingDuration="100.00" maxIntervalHaltingDuration="100.00" intervalHaltingDurationSum="3400.00" startedHalts="0.00" meanVehicleNumber="34.00" maxVehicleNumber="34" />
   <interval begin="23800.00" end="23900.00" id="e2_L193#1_0_2" sampledSeconds="3400.00" nVehEntered="0" nVehLeft="1" nVehSeen="34" meanSpeed="0.00" meanTimeLoss="100.00" meanOccupancy="66.37" maxOccupancy="66.37" meanMaxJamLengthInVehicles="34.00" meanMaxJamLengthInMeters="235.33" maxJamLengthInVehicles="34" maxJamLengthInMeters="235.46" jamLengthInVehiclesSum="3400" jamLengthInMetersSum="23532.86" meanHaltingDuration="328.91" maxHaltingDuration="354.00" haltingDurationSum="11183.00" meanIntervalHaltingDuration="100.00" maxIntervalHaltingDuration="100.00" intervalHaltingDurationSum="3400.00" startedHalts="0.00" meanVehicleNumber="34.00" maxVehicleNumber="34" />
   <interval begin="23900.00" end="24000.00" id="e2_L193#1_0_2" sampledSeconds="3203.43" nVehEntered="4" nVehLeft="3" nVehSeen="37" meanSpeed="0.30" meanTimeLoss="84.50" meanOccupancy="62.20" maxOccupancy="66.37" meanMaxJamLengthInVehicles="25.90" meanMaxJamLengthInMeters="182.78" maxJamLengthInVehicles="34" maxJamLengthInMeters="237.97" jamLengthInVehiclesSum="2893" jamLengthInMetersSum="20306.45" meanHaltingDuration="89.30" maxHaltingDuration="364.00" haltingDurationSum="13841.00" meanIntervalHaltingDuration="19.43" maxIntervalHaltingDuration="75.00" intervalHaltingDurationSum="3012.00" startedHalts="123.00" meanVehicleNumber="32.07" maxVehicleNumber="34" />
   <interval begin="24000.00" end="24100.00" id="e2_L193#1_0_2" sampledSeconds="3300.20" nVehEntered="2" nVehLeft="3" nVehSeen="36" meanSpeed="0.13" meanTimeLoss="90.72" meanOccupancy="64.29" maxOccupancy="66.37" meanMaxJamLengthInVehicles="30.77" meanMaxJamLengthInMeters="217.56" maxJamLengthInVehicles="34" maxJamLengthInMeters="238.91" jamLengthInVehiclesSum="3260" jamLengthInMetersSum="23012.25" meanHaltingDuration="95.96" maxHaltingDuration="165.00" haltingDurationSum="4990.00" meanIntervalHaltingDuration="62.33" maxIntervalHaltingDuration="100.00" intervalHaltingDurationSum="3241.00" startedHalts="20.00" meanVehicleNumber="33.02" maxVehicleNumber="34" />
   <interval begin="24100.00" end="24200.00" id="e2_L193#1_0_2" sampledSeconds="3392.70" nVehEntered="1" nVehLeft="0" nVehSeen="34" meanSpeed="0.02" meanTimeLoss="99.61" meanOccupancy="66.37" maxOccupancy="66.59" meanMaxJamLengthInVehicles="33.88" meanMaxJamLengthInMeters="232.94" maxJamLengthInVehicles="34" maxJamLengthInMeters="234.18" jamLengthInVehiclesSum="3388" jamLengthInMetersSum="23294.34" meanHaltingDuration="176.97" maxHaltingDuration="265.00" haltingDurationSum="6194.00" meanIntervalHaltingDuration="96.89" maxIntervalHaltingDuration="100.00" intervalHaltingDurationSum="3391.00" startedHalts="3.00" meanVehicleNumber="33.93" maxVehicleNumber="34" />
   <interval begin="24200.00" end="24300.00" id="e2_L193#1_0_2" sampledSeconds="3366.98" nVehEntered="6" nVehLeft="5" nVehSeen="40" meanSpeed="0.15" meanTimeLoss="83.16" meanOccupancy="65.45" maxOccupancy="68.33" meanMaxJamLengthInVehicles="30.69" meanMaxJamLengthInMeters="213.50" maxJamLengthInVehicles="35" maxJamLengthInMeters="239.38" jamLengthInVehiclesSum="3296" jamLengthInMetersSum="22874.19" meanHaltingDuration="146.76" maxHaltingDuration="348.00" haltingDurationSum="9246.00" meanIntervalHaltingDuration="52.28" maxIntervalHaltingDuration="100.00" intervalHaltingDurationSum="3294.00" startedHalts="32.00" meanVehicleNumber="33.69" maxVehicleNumber="35" />
   <interval begin="24300.00" end="24400.00" id="e2_L193#1_0_2" sampledSeconds="3500.00" nVehEntered="0" nVehLeft="0" nVehSeen="35" meanSpeed="0.00" meanTimeLoss="100.00" meanOccupancy="68.33" maxOccupancy="68.33" meanMaxJamLengthInVehicles="35.00" meanMaxJamLengthInMeters="235.32" maxJamLengthInVehicles="35" maxJamLengthInMeters="235.32" jamLengthInVehiclesSum="3500" jamLengthInMetersSum="23532.43" meanHaltingDuration="225.28" maxHaltingDuration="448.00" haltingDurationSum="7885.00" meanIntervalHaltingDuration="100.00" maxIntervalHaltingDuration="100.00" intervalHaltingDurationSum="3500.00" startedHalts="0.00" meanVehicleNumber="35.00" maxVehicleNumber="35" />
   <interval begin="24400.00" end="24500.00" id="e2_L193#1_0_2" sampledSeconds="3500.00" nVehEntered="0" nVehLeft="0" nVehSeen="35" meanSpeed="0.00" meanTimeLoss="100.00" meanOccupancy="68.33" maxOccupancy="68.33" meanMaxJamLengthInVehicles="35.00" meanMaxJamLengthInMeters="235.32" maxJamLengthInVehicles="35" maxJamLengthInMeters="235.32" jamLengthInVehiclesSum="3500" jamLengthInMetersSum="23532.39" meanHaltingDuration="325.29" maxHaltingDuration="548.00" haltingDurationSum="11385.00" meanIntervalHaltingDuration="100.00" maxIntervalHaltingDuration="100.00" intervalHaltingDurationSum="3500.00" startedHalts="0.00" meanVehicleNumber="35.00" maxVehicleNumber="35" />
   <interval begin="24500.00" end="24600.00" id="e2_L193#1_0_2" sampledSeconds="3500.00" nVehEntered="0" nVehLeft="0" nVehSeen="35" meanSpeed="0.00" meanTimeLoss="100.00" meanOccupancy="68.33" maxOccupancy="68.33" meanMaxJamLengthInVehicles="35.00" meanMaxJamLengthInMeters="235.32" maxJamLengthInVehicles="35" maxJamLengthInMeters="235.32" jamLengthInVehiclesSum="3500" jamLengthInMetersSum="23532.39" meanHaltingDuration="425.29" maxHaltingDuration="648.00" haltingDurationSum="14885.00" meanIntervalHaltingDuration="100.00" maxIntervalHaltingDuration="100.00" intervalHaltingDurationSum="3500.00" startedHalts="0.00" meanVehicleNumber="35.00" maxVehicleNumber="35" />
   <interval begin="24600.00" end="24700.00" id="e2_L193#1_0_2" sampledSeconds="3500.00" nVehEntered="0" nVehLeft="0" nVehSeen="35" meanSpeed="0.00" meanTimeLoss="100.00" meanOccupancy="68.33" maxOccupancy="68.33" meanMaxJamLengthInVehicles="35.00" meanMaxJamLengthInMeters="235.32" maxJamLengthInVehicles="35" maxJamLengthInMeters="235.32" jamLengthInVehiclesSum="3500" jamLengthInMetersSum="23532.39" meanHaltingDuration="525.28" maxHaltingDuration="748.00" haltingDurationSum="18385.00" meanIntervalHaltingDuration="100.00" maxIntervalHaltingDuration="100.00" intervalHaltingDurationSum="3500.00" startedHalts="0.00" meanVehicleNumber="35.00" maxVehicleNumber="35" />
   <interval begin="24700.00" end="24800.00" id="e2_L193#1_0_2" sampledSeconds="3500.00" nVehEntered="0" nVehLeft="0" nVehSeen="35" meanSpeed="0.00" meanTimeLoss="100.00" meanOccupancy="68.33" maxOccupancy="68.33" meanMaxJamLengthInVehicles="35.00" meanMaxJamLengthInMeters="235.32" maxJamLengthInVehicles="35" maxJamLengthInMeters="235.32" jamLengthInVehiclesSum="3500" jamLengthInMetersSum="23532.39" meanHaltingDuration="625.28" maxHaltingDuration="848.00" haltingDurationSum="21885.00" meanIntervalHaltingDuration="100.00" maxIntervalHaltingDuration="100.00" intervalHaltingDurationSum="3500.00" startedHalts="0.00" meanVehicleNumber="35.00" maxVehicleNumber="35" />
   <interval begin="24800.00" end="24900.00" id="e2_L193#1_0_2" sampledSeconds="3500.00" nVehEntered="0" nVehLeft="0" nVehSeen="35" meanSpeed="0.01" meanTimeLoss="99.93" meanOccupancy="68.10" maxOccupancy="68.33" meanMaxJamLengthInVehicles="35.00" meanMaxJamLengthInMeters="235.77" maxJamLengthInVehicles="35" maxJamLengthInMeters="236.22" jamLengthInVehiclesSum="3500" jamLengthInMetersSum="23577.08" meanHaltingDuration="725.28" maxHaltingDuration="948.00" haltingDurationSum="25385.00" meanIntervalHaltingDuration="100.00" maxIntervalHaltingDuration="100.00" intervalHaltingDurationSum="3500.00" startedHalts="0.00" meanVehicleNumber="35.00" maxVehicleNumber="35" />
   <interval begin="24900.00" end="25000.00" id="e2_L193#1_0_2" sampledSeconds="3500.00" nVehEntered="0" nVehLeft="0" nVehSeen="35" meanSpeed="0.00" meanTimeLoss="100.00" meanOccupancy="67.95" maxOccupancy="67.95" meanMaxJamLengthInVehicles="35.00" meanMaxJamLengthInMeters="235.33" maxJamLengthInVehicles="35" maxJamLengthInMeters="235.47" jamLengthInVehiclesSum="3500" jamLengthInMetersSum="23533.12" meanHaltingDuration="825.28" maxHaltingDuration="1048.00" haltingDurationSum="28885.00" meanIntervalHaltingDuration="100.00" maxIntervalHaltingDuration="100.00" intervalHaltingDurationSum="3500.00" startedHalts="0.00" meanVehicleNumber="35.00" maxVehicleNumber="35" />
   <interval begin="25000.00" end="25100.00" id="e2_L193#1_0_2" sampledSeconds="3500.00" nVehEntered="0" nVehLeft="0" nVehSeen="35" meanSpeed="0.00" meanTimeLoss="100.00" meanOccupancy="67.95" maxOccupancy="67.95" meanMaxJamLengthInVehicles="35.00" meanMaxJamLengthInMeters="235.32" maxJamLengthInVehicles="35" maxJamLengthInMeters="235.32" jamLengthInVehiclesSum="3500" jamLengthInMetersSum="23532.41" meanHaltingDuration="925.28" maxHaltingDuration="1148.00" haltingDurationSum="32385.00" meanIntervalHaltingDuration="100.00" maxIntervalHaltingDuration="100.00" intervalHaltingDurationSum="3500.00" startedHalts="0.00" meanVehicleNumber="35.00" maxVehicleNumber="35" />
   <interval begin="25100.00" end="25200.00" id="e2_L193#1_0_2" sampledSeconds="3500.00" nVehEntered="0" nVehLeft="0" nVehSeen="35" meanSpeed="0.00" meanTimeLoss="100.00" meanOccupancy="67.95" maxOccupancy="67.95" meanMaxJamLengthInVehicles="35.00" meanMaxJamLengthInMeters="235.32" maxJamLengthInVehicles="35" maxJamLengthInMeters="235.32" jamLengthInVehiclesSum="3500" jamLengthInMetersSum="23532.41" meanHaltingDuration="1025.29" maxHaltingDuration="1248.00" haltingDurationSum="35885.00" meanIntervalHaltingDuration="100.00" maxIntervalHaltingDuration="100.00" intervalHaltingDurationSum="3500.00" startedHalts="0.00" meanVehicleNumber="35.00" maxVehicleNumber="35" />
   <interval begin="25200.00" end="25300.00" id="e2_L193#1_0_2" sampledSeconds="3500.00" nVehEntered="0" nVehLeft="0" nVehSeen="35" meanSpeed="0.00" meanTimeLoss="100.00" meanOccupancy="67.95" maxOccupancy="67.95" meanMaxJamLengthInVehicles="35.00" meanMaxJamLengthInMeters="235.32" maxJamLengthInVehicles="35" maxJamLengthInMeters="235.32" jamLengthInVehiclesSum="3500" jamLengthInMetersSum="23532.42" meanHaltingDuration="1125.29" maxHaltingDuration="1348.00" haltingDurationSum="39385.00" meanIntervalHaltingDuration="100.00" maxIntervalHaltingDuration="100.00" intervalHaltingDurationSum="3500.00" startedHalts="0.00" meanVehicleNumber="35.00" maxVehicleNumber="35" />
   <interval begin="25300.00" end="25400.00" id="e2_L193#1_0_2" sampledSeconds="3500.00" nVehEntered="0" nVehLeft="0" nVehSeen="35" meanSpeed="0.00" meanTimeLoss="100.00" meanOccupancy="67.95" maxOccupancy="67.95" meanMaxJamLengthInVehicles="35.00" meanMaxJamLengthInMeters="235.32" maxJamLengthInVehicles="35" maxJamLengthInMeters="235.32" jamLengthInVehiclesSum="3500" jamLengthInMetersSum="23532.41" meanHaltingDuration="1225.29" maxHaltingDuration="1448.00" haltingDurationSum="42885.00" meanIntervalHaltingDuration="100.00" maxIntervalHaltingDuration="100.00" intervalHaltingDurationSum="3500.00" startedHalts="0.00" meanVehicleNumber="35.00" maxVehicleNumber="35" />
   <interval begin="25400.00" end="25500.00" id="e2_L193#1_0_2" sampledSeconds="3500.00" nVehEntered="0" nVehLeft="0" nVehSeen="35" meanSpeed="0.00" meanTimeLoss="100.00" meanOccupancy="67.95" maxOccupancy="67.95" meanMaxJamLengthInVehicles="35.00" meanMaxJamLengthInMeters="235.34" maxJamLengthInVehicles="35" maxJamLengthInMeters="235.84" jamLengthInVehiclesSum="3500" jamLengthInMetersSum="23533.60" meanHaltingDuration="1325.29" maxHaltingDuration="1548.00" haltingDurationSum="46385.00" meanIntervalHaltingDuration="100.00" maxIntervalHaltingDuration="100.00" intervalHaltingDurationSum="3500.00" startedHalts="0.00" meanVehicleNumber="35.00" maxVehicleNumber="35" />
   <interval begin="25500.00" end="25600.00" id="e2_L193#1_0_2" sampledSeconds="3010.79" nVehEntered="8" nVehLeft="17" nVehSeen="43" meanSpeed="0.78" meanTimeLoss="65.64" meanOccupancy="58.09" maxOccupancy="67.49" meanMaxJamLengthInVehicles="17.86" meanMaxJamLengthInMeters="128.51" maxJamLengthInVehicles="35" maxJamLengthInMeters="238.67" jamLengthInVehiclesSum="2267" jamLengthInMetersSum="15854.18" meanHaltingDuration="207.13" maxHaltingDuration="1603.00" haltingDurationSum="44948.00" meanIntervalHaltingDuration="10.88" maxIntervalHaltingDuration="75.00" intervalHaltingDurationSum="2361.00" startedHalts="190.00" meanVehicleNumber="30.17" maxVehicleNumber="35" />
   <interval begin="25600.00" end="25700.00" id="e2_L193#1_0_2" sampledSeconds="3163.79" nVehEntered="17" nVehLeft="11" nVehSeen="43" meanSpeed="0.64" meanTimeLoss="69.74" meanOccupancy="61.23" maxOccupancy="67.95" meanMaxJamLengthInVehicles="16.68" meanMaxJamLengthInMeters="113.57" maxJamLengthInVehicles="33" maxJamLengthInMeters="236.59" jamLengthInVehiclesSum="2475" jamLengthInMetersSum="16768.84" meanHaltingDuration="11.93" maxHaltingDuration="60.00" haltingDurationSum="2637.00" meanIntervalHaltingDuration="11.72" maxIntervalHaltingDuration="60.00" intervalHaltingDurationSum="2591.00" startedHalts="210.00" meanVehicleNumber="31.72" maxVehicleNumber="35" />
   <interval begin="25700.00" end="25800.00" id="e2_L193#1_0_2" sampledSeconds="3078.60" nVehEntered="21" nVehLeft="18" nVehSeen="53" meanSpeed="1.15" meanTimeLoss="52.68" meanOccupancy="59.58" maxOccupancy="70.87" meanMaxJamLengthInVehicles="12.68" meanMaxJamLengthInMeters="87.86" maxJamLengthInVehicles="35" maxJamLengthInMeters="236.40" jamLengthInVehiclesSum="1858" jamLengthInMetersSum="12548.77" meanHaltingDuration="8.17" maxHaltingDuration="55.00" haltingDurationSum="2264.00" meanIntervalHaltingDuration="7.58" maxIntervalHaltingDuration="55.00" intervalHaltingDurationSum="2099.00" startedHalts="270.00" meanVehicleNumber="30.87" maxVehicleNumber="37" />