<?xml version="1.0" encoding="UTF-8"?>

<!-- generated on Sun Feb 17 15:57:00 2019 by 
<configuration xmlns:xsi="http://www.w3.org/2001/XMLSchema-instance" xsi:noNamespaceSchemaLocation="http://sumo.dlr.de/xsd/Configuration.xsd">

    <input>
        <net-file value="/home/sda/Documents/sumo-sathorn-ray/models/sathorn-morning/sathorn_w_fixed_20160404.net.xml"/>
        <route-files value="/home/sda/Documents/sumo-sathorn-ray/models/sathorn-morning/Great-route/sathorn_w_20160422edit2.rou.xml"/>
        <additional-files value="/home/sda/Documents/sumo-sathorn-ray/models/sathorn-morning/sathon_wide_tls_20160418_edited.add.xml,/home/sda/Documents/sumo-sathorn-ray/detectors/sathorn_w_detectors.add.xml"/>
    </input>

    <time>
        <begin value="21600"/>
        <end value="32400"/>
        <step-length value="1"/>
    </time>

    <processing>
        <no-internal-links value="true"/>
        <ignore-junction-blocker value="-1"/>
        <time-to-teleport value="-1"/>
        <eager-insert value="true"/>
        <time-to-impatience value="300"/>
    </processing>

    <report>
        <no-warnings value="true"/>
    </report>

    <random_number>
        <random value="false"/>
        <seed value="20"/>
    </random_number>

    <gui_only>
        <gui-settings-file value="/home/sda/Documents/sumo-sathorn-ray/gui-settings/gui-settings-file-surasak.xml"/>
        <quit-on-end value="true"/>
        <start value="true"/>
        <tracker-interval value="1"/>
    </gui_only>

</configuration>
-->

<detector xmlns:xsi="http://www.w3.org/2001/XMLSchema-instance" xsi:noNamespaceSchemaLocation="http://sumo.dlr.de/xsd/det_e2_file.xsd">
   <interval begin="21600.00" end="21700.00" id="e2_L197#2_2_0" sampledSeconds="0.00" nVehEntered="0" nVehLeft="0" nVehSeen="0" meanSpeed="-1.00" meanTimeLoss="-1.00" meanOccupancy="0.00" maxOccupancy="0.00" meanMaxJamLengthInVehicles="0.00" meanMaxJamLengthInMeters="0.00" maxJamLengthInVehicles="0" maxJamLengthInMeters="0.00" jamLengthInVehiclesSum="0" jamLengthInMetersSum="0.00" meanHaltingDuration="0.00" maxHaltingDuration="0.00" haltingDurationSum="0.00" meanIntervalHaltingDuration="0.00" maxIntervalHaltingDuration="0.00" intervalHaltingDurationSum="0.00" startedHalts="0.00" meanVehicleNumber="0.00" maxVehicleNumber="0" />
   <interval begin="21700.00" end="21800.00" id="e2_L197#2_2_0" sampledSeconds="0.00" nVehEntered="0" nVehLeft="0" nVehSeen="0" meanSpeed="-1.00" meanTimeLoss="-1.00" meanOccupancy="0.00" maxOccupancy="0.00" meanMaxJamLengthInVehicles="0.00" meanMaxJamLengthInMeters="0.00" maxJamLengthInVehicles="0" maxJamLengthInMeters="0.00" jamLengthInVehiclesSum="0" jamLengthInMetersSum="0.00" meanHaltingDuration="0.00" maxHaltingDuration="0.00" haltingDurationSum="0.00" meanIntervalHaltingDuration="0.00" maxIntervalHaltingDuration="0.00" intervalHaltingDurationSum="0.00" startedHalts="0.00" meanVehicleNumber="0.00" maxVehicleNumber="0" />
   <interval begin="21800.00" end="21900.00" id="e2_L197#2_2_0" sampledSeconds="2.15" nVehEntered="1" nVehLeft="0" nVehSeen="1" meanSpeed="8.84" meanTimeLoss="0.63" meanOccupancy="0.37" maxOccupancy="15.40" meanMaxJamLengthInVehicles="0.00" meanMaxJamLengthInMeters="0.00" maxJamLengthInVehicles="0" maxJamLengthInMeters="0.00" jamLengthInVehiclesSum="0" jamLengthInMetersSum="0.00" meanHaltingDuration="0.00" maxHaltingDuration="0.00" haltingDurationSum="0.00" meanIntervalHaltingDuration="0.00" maxIntervalHaltingDuration="0.00" intervalHaltingDurationSum="0.00" startedHalts="0.00" meanVehicleNumber="0.03" maxVehicleNumber="1" />
   <interval begin="21900.00" end="22000.00" id="e2_L197#2_2_0" sampledSeconds="418.98" nVehEntered="8" nVehLeft="4" nVehSeen="9" meanSpeed="0.30" meanTimeLoss="45.45" meanOccupancy="57.31" maxOccupancy="65.05" meanMaxJamLengthInVehicles="3.74" meanMaxJamLengthInMeters="21.92" maxJamLengthInVehicles="5" maxJamLengthInMeters="29.00" jamLengthInVehiclesSum="374" jamLengthInMetersSum="2192.34" meanHaltingDuration="38.40" maxHaltingDuration="48.00" haltingDurationSum="384.00" meanIntervalHaltingDuration="38.40" maxIntervalHaltingDuration="48.00" intervalHaltingDurationSum="384.00" startedHalts="11.00" meanVehicleNumber="4.25" maxVehicleNumber="5" />
   <interval begin="22000.00" end="22100.00" id="e2_L197#2_2_0" sampledSeconds="500.00" nVehEntered="0" nVehLeft="0" nVehSeen="5" meanSpeed="0.00" meanTimeLoss="100.00" meanOccupancy="65.05" maxOccupancy="65.05" meanMaxJamLengthInVehicles="5.00" meanMaxJamLengthInMeters="29.00" maxJamLengthInVehicles="5" maxJamLengthInMeters="29.00" jamLengthInVehiclesSum="500" jamLengthInMetersSum="2899.90" meanHaltingDuration="143.00" maxHaltingDuration="148.00" haltingDurationSum="715.00" meanIntervalHaltingDuration="100.00" maxIntervalHaltingDuration="100.00" intervalHaltingDurationSum="500.00" startedHalts="0.00" meanVehicleNumber="5.00" maxVehicleNumber="5" />
   <interval begin="22100.00" end="22200.00" id="e2_L197#2_2_0" sampledSeconds="500.00" nVehEntered="0" nVehLeft="0" nVehSeen="5" meanSpeed="0.00" meanTimeLoss="100.00" meanOccupancy="65.05" maxOccupancy="65.05" meanMaxJamLengthInVehicles="5.00" meanMaxJamLengthInMeters="29.00" maxJamLengthInVehicles="5" maxJamLengthInMeters="29.00" jamLengthInVehiclesSum="500" jamLengthInMetersSum="2899.90" meanHaltingDuration="243.00" maxHaltingDuration="248.00" haltingDurationSum="1215.00" meanIntervalHaltingDuration="100.00" maxIntervalHaltingDuration="100.00" intervalHaltingDurationSum="500.00" startedHalts="0.00" meanVehicleNumber="5.00" maxVehicleNumber="5" />
   <interval begin="22200.00" end="22300.00" id="e2_L197#2_2_0" sampledSeconds="491.08" nVehEntered="1" nVehLeft="1" nVehSeen="6" meanSpeed="0.06" meanTimeLoss="81.44" meanOccupancy="64.23" maxOccupancy="65.05" meanMaxJamLengthInVehicles="4.76" meanMaxJamLengthInMeters="27.65" maxJamLengthInVehicles="5" maxJamLengthInMeters="30.60" jamLengthInVehiclesSum="477" jamLengthInMetersSum="2767.43" meanHaltingDuration="140.10" maxHaltingDuration="296.00" haltingDurationSum="1401.00" meanIntervalHaltingDuration="43.40" maxIntervalHaltingDuration="54.00" intervalHaltingDurationSum="434.00" startedHalts="6.00" meanVehicleNumber="4.92" maxVehicleNumber="5" />
   <interval begin="22300.00" end="22400.00" id="e2_L197#2_2_0" sampledSeconds="489.00" nVehEntered="1" nVehLeft="1" nVehSeen="6" meanSpeed="0.06" meanTimeLoss="81.08" meanOccupancy="64.13" maxOccupancy="65.05" meanMaxJamLengthInVehicles="4.76" meanMaxJamLengthInMeters="27.76" maxJamLengthInVehicles="5" maxJamLengthInMeters="29.90" jamLengthInVehiclesSum="478" jamLengthInMetersSum="2784.03" meanHaltingDuration="70.90" maxHaltingDuration="78.00" haltingDurationSum="709.00" meanIntervalHaltingDuration="48.30" maxIntervalHaltingDuration="78.00" intervalHaltingDurationSum="483.00" startedHalts="5.00" meanVehicleNumber="4.89" maxVehicleNumber="5" />
   <interval begin="22400.00" end="22500.00" id="e2_L197#2_2_0" sampledSeconds="500.00" nVehEntered="0" nVehLeft="0" nVehSeen="5" meanSpeed="0.00" meanTimeLoss="100.00" meanOccupancy="65.05" maxOccupancy="65.05" meanMaxJamLengthInVehicles="5.00" meanMaxJamLengthInMeters="29.00" maxJamLengthInVehicles="5" maxJamLengthInMeters="29.00" jamLengthInVehiclesSum="500" jamLengthInMetersSum="2899.90" meanHaltingDuration="174.60" maxHaltingDuration="178.00" haltingDurationSum="873.00" meanIntervalHaltingDuration="100.00" maxIntervalHaltingDuration="100.00" intervalHaltingDurationSum="500.00" startedHalts="0.00" meanVehicleNumber="5.00" maxVehicleNumber="5" />
   <interval begin="22500.00" end="22600.00" id="e2_L197#2_2_0" sampledSeconds="500.00" nVehEntered="0" nVehLeft="0" nVehSeen="5" meanSpeed="0.00" meanTimeLoss="100.00" meanOccupancy="65.05" maxOccupancy="65.05" meanMaxJamLengthInVehicles="5.00" meanMaxJamLengthInMeters="29.00" maxJamLengthInVehicles="5" maxJamLengthInMeters="29.00" jamLengthInVehiclesSum="500" jamLengthInMetersSum="2899.90" meanHaltingDuration="274.60" maxHaltingDuration="278.00" haltingDurationSum="1373.00" meanIntervalHaltingDuration="100.00" maxIntervalHaltingDuration="100.00" intervalHaltingDurationSum="500.00" startedHalts="0.00" meanVehicleNumber="5.00" maxVehicleNumber="5" />
   <interval begin="22600.00" end="22700.00" id="e2_L197#2_2_0" sampledSeconds="500.00" nVehEntered="0" nVehLeft="0" nVehSeen="5" meanSpeed="0.00" meanTimeLoss="100.00" meanOccupancy="65.05" maxOccupancy="65.05" meanMaxJamLengthInVehicles="5.00" meanMaxJamLengthInMeters="29.00" maxJamLengthInVehicles="5" maxJamLengthInMeters="29.00" jamLengthInVehiclesSum="500" jamLengthInMetersSum="2899.90" meanHaltingDuration="374.60" maxHaltingDuration="378.00" haltingDurationSum="1873.00" meanIntervalHaltingDuration="100.00" maxIntervalHaltingDuration="100.00" intervalHaltingDurationSum="500.00" startedHalts="0.00" meanVehicleNumber="5.00" maxVehicleNumber="5" />
   <interval begin="22700.00" end="22800.00" id="e2_L197#2_2_0" sampledSeconds="500.00" nVehEntered="0" nVehLeft="0" nVehSeen="5" meanSpeed="0.00" meanTimeLoss="100.00" meanOccupancy="65.05" maxOccupancy="65.05" meanMaxJamLengthInVehicles="5.00" meanMaxJamLengthInMeters="29.00" maxJamLengthInVehicles="5" maxJamLengthInMeters="29.00" jamLengthInVehiclesSum="500" jamLengthInMetersSum="2899.90" meanHaltingDuration="474.60" maxHaltingDuration="478.00" haltingDurationSum="2373.00" meanIntervalHaltingDuration="100.00" maxIntervalHaltingDuration="100.00" intervalHaltingDurationSum="500.00" startedHalts="0.00" meanVehicleNumber="5.00" maxVehicleNumber="5" />
   <interval begin="22800.00" end="22900.00" id="e2_L197#2_2_0" sampledSeconds="500.00" nVehEntered="0" nVehLeft="0" nVehSeen="5" meanSpeed="0.00" meanTimeLoss="100.00" meanOccupancy="65.05" maxOccupancy="65.05" meanMaxJamLengthInVehicles="5.00" meanMaxJamLengthInMeters="29.00" maxJamLengthInVehicles="5" maxJamLengthInMeters="29.00" jamLengthInVehiclesSum="500" jamLengthInMetersSum="2899.90" meanHaltingDuration="574.60" maxHaltingDuration="578.00" haltingDurationSum="2873.00" meanIntervalHaltingDuration="100.00" maxIntervalHaltingDuration="100.00" intervalHaltingDurationSum="500.00" startedHalts="0.00" meanVehicleNumber="5.00" maxVehicleNumber="5" />
   <interval begin="22900.00" end="23000.00" id="e2_L197#2_2_0" sampledSeconds="500.00" nVehEntered="0" nVehLeft="0" nVehSeen="5" meanSpeed="0.00" meanTimeLoss="100.00" meanOccupancy="65.05" maxOccupancy="65.05" meanMaxJamLengthInVehicles="5.00" meanMaxJamLengthInMeters="29.00" maxJamLengthInVehicles="5" maxJamLengthInMeters="29.00" jamLengthInVehiclesSum="500" jamLengthInMetersSum="2899.90" meanHaltingDuration="674.60" maxHaltingDuration="678.00" haltingDurationSum="3373.00" meanIntervalHaltingDuration="100.00" maxIntervalHaltingDuration="100.00" intervalHaltingDurationSum="500.00" startedHalts="0.00" meanVehicleNumber="5.00" maxVehicleNumber="5" />
   <interval begin="23000.00" end="23100.00" id="e2_L197#2_2_0" sampledSeconds="500.00" nVehEntered="0" nVehLeft="0" nVehSeen="5" meanSpeed="0.00" meanTimeLoss="100.00" meanOccupancy="65.05" maxOccupancy="65.05" meanMaxJamLengthInVehicles="5.00" meanMaxJamLengthInMeters="29.00" maxJamLengthInVehicles="5" maxJamLengthInMeters="29.00" jamLengthInVehiclesSum="500" jamLengthInMetersSum="2899.90" meanHaltingDuration="774.60" maxHaltingDuration="778.00" haltingDurationSum="3873.00" meanIntervalHaltingDuration="100.00" maxIntervalHaltingDuration="100.00" intervalHaltingDurationSum="500.00" startedHalts="0.00" meanVehicleNumber="5.00" maxVehicleNumber="5" />
   <interval begin="23100.00" end="23200.00" id="e2_L197#2_2_0" sampledSeconds="500.00" nVehEntered="0" nVehLeft="0" nVehSeen="5" meanSpeed="0.00" meanTimeLoss="100.00" meanOccupancy="65.05" maxOccupancy="65.05" meanMaxJamLengthInVehicles="5.00" meanMaxJamLengthInMeters="29.00" maxJamLengthInVehicles="5" maxJamLengthInMeters="29.00" jamLengthInVehiclesSum="500" jamLengthInMetersSum="2899.90" meanHaltingDuration="874.60" maxHaltingDuration="878.00" haltingDurationSum="4373.00" meanIntervalHaltingDuration="100.00" maxIntervalHaltingDuration="100.00" intervalHaltingDurationSum="500.00" startedHalts="0.00" meanVehicleNumber="5.00" maxVehicleNumber="5" />
   <interval begin="23200.00" end="23300.00" id="e2_L197#2_2_0" sampledSeconds="500.00" nVehEntered="0" nVehLeft="0" nVehSeen="5" meanSpeed="0.00" meanTimeLoss="100.00" meanOccupancy="65.05" maxOccupancy="65.05" meanMaxJamLengthInVehicles="5.00" meanMaxJamLengthInMeters="29.00" maxJamLengthInVehicles="5" maxJamLengthInMeters="29.00" jamLengthInVehiclesSum="500" jamLengthInMetersSum="2899.90" meanHaltingDuration="974.60" maxHaltingDuration="978.00" haltingDurationSum="4873.00" meanIntervalHaltingDuration="100.00" maxIntervalHaltingDuration="100.00" intervalHaltingDurationSum="500.00" startedHalts="0.00" meanVehicleNumber="5.00" maxVehicleNumber="5" />
   <interval begin="23300.00" end="23400.00" id="e2_L197#2_2_0" sampledSeconds="500.00" nVehEntered="0" nVehLeft="0" nVehSeen="5" meanSpeed="0.00" meanTimeLoss="100.00" meanOccupancy="65.05" maxOccupancy="65.05" meanMaxJamLengthInVehicles="5.00" meanMaxJamLengthInMeters="29.00" maxJamLengthInVehicles="5" maxJamLengthInMeters="29.00" jamLengthInVehiclesSum="500" jamLengthInMetersSum="2899.90" meanHaltingDuration="1074.60" maxHaltingDuration="1078.00" haltingDurationSum="5373.00" meanIntervalHaltingDuration="100.00" maxIntervalHaltingDuration="100.00" intervalHaltingDurationSum="500.00" startedHalts="0.00" meanVehicleNumber="5.00" maxVehicleNumber="5" />
   <interval begin="23400.00" end="23500.00" id="e2_L197#2_2_0" sampledSeconds="480.98" nVehEntered="2" nVehLeft="2" nVehSeen="7" meanSpeed="0.14" meanTimeLoss="67.97" meanOccupancy="63.06" maxOccupancy="65.05" meanMaxJamLengthInVehicles="4.56" meanMaxJamLengthInMeters="26.40" maxJamLengthInVehicles="5" maxJamLengthInMeters="29.00" jamLengthInVehiclesSum="456" jamLengthInMetersSum="2640.38" meanHaltingDuration="583.40" maxHaltingDuration="1114.00" haltingDurationSum="5834.00" meanIntervalHaltingDuration="46.10" maxIntervalHaltingDuration="58.00" intervalHaltingDurationSum="461.00" startedHalts="5.00" meanVehicleNumber="4.82" maxVehicleNumber="5" />
   <interval begin="23500.00" end="23600.00" id="e2_L197#2_2_0" sampledSeconds="500.00" nVehEntered="0" nVehLeft="0" nVehSeen="5" meanSpeed="0.00" meanTimeLoss="100.00" meanOccupancy="65.05" maxOccupancy="65.05" meanMaxJamLengthInVehicles="5.00" meanMaxJamLengthInMeters="29.00" maxJamLengthInVehicles="5" maxJamLengthInMeters="29.00" jamLengthInVehiclesSum="500" jamLengthInMetersSum="2899.90" meanHaltingDuration="154.40" maxHaltingDuration="158.00" haltingDurationSum="772.00" meanIntervalHaltingDuration="100.00" maxIntervalHaltingDuration="100.00" intervalHaltingDurationSum="500.00" startedHalts="0.00" meanVehicleNumber="5.00" maxVehicleNumber="5" />
   <interval begin="23600.00" end="23700.00" id="e2_L197#2_2_0" sampledSeconds="500.00" nVehEntered="0" nVehLeft="0" nVehSeen="5" meanSpeed="0.00" meanTimeLoss="100.00" meanOccupancy="65.05" maxOccupancy="65.05" meanMaxJamLengthInVehicles="5.00" meanMaxJamLengthInMeters="29.00" maxJamLengthInVehicles="5" maxJamLengthInMeters="29.00" jamLengthInVehiclesSum="500" jamLengthInMetersSum="2899.90" meanHaltingDuration="254.40" maxHaltingDuration="258.00" haltingDurationSum="1272.00" meanIntervalHaltingDuration="100.00" maxIntervalHaltingDuration="100.00" intervalHaltingDurationSum="500.00" startedHalts="0.00" meanVehicleNumber="5.00" maxVehicleNumber="5" />
   <interval begin="23700.00" end="23800.00" id="e2_L197#2_2_0" sampledSeconds="500.00" nVehEntered="0" nVehLeft="0" nVehSeen="5" meanSpeed="0.00" meanTimeLoss="100.00" meanOccupancy="65.05" maxOccupancy="65.05" meanMaxJamLengthInVehicles="5.00" meanMaxJamLengthInMeters="29.00" maxJamLengthInVehicles="5" maxJamLengthInMeters="29.00" jamLengthInVehiclesSum="500" jamLengthInMetersSum="2899.90" meanHaltingDuration="354.40" maxHaltingDuration="358.00" haltingDurationSum="1772.00" meanIntervalHaltingDuration="100.00" maxIntervalHaltingDuration="100.00" intervalHaltingDurationSum="500.00" startedHalts="0.00" meanVehicleNumber="5.00" maxVehicleNumber="5" />
   <interval begin="23800.00" end="23900.00" id="e2_L197#2_2_0" sampledSeconds="490.56" nVehEntered="1" nVehLeft="1" nVehSeen="6" meanSpeed="0.07" meanTimeLoss="81.29" meanOccupancy="65.99" maxOccupancy="68.05" meanMaxJamLengthInVehicles="4.75" meanMaxJamLengthInMeters="28.07" maxJamLengthInVehicles="5" maxJamLengthInMeters="29.90" jamLengthInVehiclesSum="476" jamLengthInMetersSum="2809.44" meanHaltingDuration="225.30" maxHaltingDuration="383.00" haltingDurationSum="2253.00" meanIntervalHaltingDuration="48.10" maxIntervalHaltingDuration="71.00" intervalHaltingDurationSum="481.00" startedHalts="5.00" meanVehicleNumber="4.91" maxVehicleNumber="5" />
   <interval begin="23900.00" end="24000.00" id="e2_L197#2_2_0" sampledSeconds="479.65" nVehEntered="2" nVehLeft="2" nVehSeen="7" meanSpeed="0.12" meanTimeLoss="67.86" meanOccupancy="65.07" maxOccupancy="68.05" meanMaxJamLengthInVehicles="4.60" meanMaxJamLengthInMeters="27.34" maxJamLengthInVehicles="5" maxJamLengthInMeters="30.67" jamLengthInVehiclesSum="460" jamLengthInMetersSum="2733.72" meanHaltingDuration="74.33" maxHaltingDuration="137.00" haltingDurationSum="669.00" meanIntervalHaltingDuration="44.33" maxIntervalHaltingDuration="72.00" intervalHaltingDurationSum="399.00" startedHalts="5.00" meanVehicleNumber="4.81" maxVehicleNumber="5" />
   <interval begin="24000.00" end="24100.00" id="e2_L197#2_2_0" sampledSeconds="500.00" nVehEntered="0" nVehLeft="0" nVehSeen="5" meanSpeed="0.00" meanTimeLoss="100.00" meanOccupancy="65.05" maxOccupancy="65.05" meanMaxJamLengthInVehicles="5.00" meanMaxJamLengthInMeters="29.00" maxJamLengthInVehicles="5" maxJamLengthInMeters="29.00" jamLengthInVehiclesSum="500" jamLengthInMetersSum="2899.90" meanHaltingDuration="124.20" maxHaltingDuration="128.00" haltingDurationSum="621.00" meanIntervalHaltingDuration="100.00" maxIntervalHaltingDuration="100.00" intervalHaltingDurationSum="500.00" startedHalts="0.00" meanVehicleNumber="5.00" maxVehicleNumber="5" />
   <interval begin="24100.00" end="24200.00" id="e2_L197#2_2_0" sampledSeconds="487.49" nVehEntered="1" nVehLeft="1" nVehSeen="6" meanSpeed="0.06" meanTimeLoss="80.85" meanOccupancy="63.94" maxOccupancy="65.05" meanMaxJamLengthInVehicles="4.76" meanMaxJamLengthInMeters="27.78" maxJamLengthInVehicles="5" maxJamLengthInMeters="29.78" jamLengthInVehiclesSum="479" jamLengthInMetersSum="2788.79" meanHaltingDuration="106.78" maxHaltingDuration="219.00" haltingDurationSum="961.00" meanIntervalHaltingDuration="52.00" maxIntervalHaltingDuration="100.00" intervalHaltingDurationSum="468.00" startedHalts="5.00" meanVehicleNumber="4.88" maxVehicleNumber="5" />
   <interval begin="24200.00" end="24300.00" id="e2_L197#2_2_0" sampledSeconds="500.00" nVehEntered="0" nVehLeft="0" nVehSeen="5" meanSpeed="0.00" meanTimeLoss="100.00" meanOccupancy="65.05" maxOccupancy="65.05" meanMaxJamLengthInVehicles="5.00" meanMaxJamLengthInMeters="29.00" maxJamLengthInVehicles="5" maxJamLengthInMeters="29.00" jamLengthInVehiclesSum="500" jamLengthInMetersSum="2899.90" meanHaltingDuration="205.60" maxHaltingDuration="319.00" haltingDurationSum="1028.00" meanIntervalHaltingDuration="100.00" maxIntervalHaltingDuration="100.00" intervalHaltingDurationSum="500.00" startedHalts="0.00" meanVehicleNumber="5.00" maxVehicleNumber="5" />
   <interval begin="24300.00" end="24400.00" id="e2_L197#2_2_0" sampledSeconds="500.00" nVehEntered="0" nVehLeft="0" nVehSeen="5" meanSpeed="0.00" meanTimeLoss="100.00" meanOccupancy="65.05" maxOccupancy="65.05" meanMaxJamLengthInVehicles="5.00" meanMaxJamLengthInMeters="29.00" maxJamLengthInVehicles="5" maxJamLengthInMeters="29.00" jamLengthInVehiclesSum="500" jamLengthInMetersSum="2899.90" meanHaltingDuration="305.60" maxHaltingDuration="419.00" haltingDurationSum="1528.00" meanIntervalHaltingDuration="100.00" maxIntervalHaltingDuration="100.00" intervalHaltingDurationSum="500.00" startedHalts="0.00" meanVehicleNumber="5.00" maxVehicleNumber="5" />
   <interval begin="24400.00" end="24500.00" id="e2_L197#2_2_0" sampledSeconds="500.00" nVehEntered="0" nVehLeft="0" nVehSeen="5" meanSpeed="0.00" meanTimeLoss="100.00" meanOccupancy="65.05" maxOccupancy="65.05" meanMaxJamLengthInVehicles="5.00" meanMaxJamLengthInMeters="29.00" maxJamLengthInVehicles="5" maxJamLengthInMeters="29.00" jamLengthInVehiclesSum="500" jamLengthInMetersSum="2899.90" meanHaltingDuration="405.60" maxHaltingDuration="519.00" haltingDurationSum="2028.00" meanIntervalHaltingDuration="100.00" maxIntervalHaltingDuration="100.00" intervalHaltingDurationSum="500.00" startedHalts="0.00" meanVehicleNumber="5.00" maxVehicleNumber="5" />
   <interval begin="24500.00" end="24600.00" id="e2_L197#2_2_0" sampledSeconds="500.00" nVehEntered="0" nVehLeft="0" nVehSeen="5" meanSpeed="0.00" meanTimeLoss="100.00" meanOccupancy="65.05" maxOccupancy="65.05" meanMaxJamLengthInVehicles="5.00" meanMaxJamLengthInMeters="29.00" maxJamLengthInVehicles="5" maxJamLengthInMeters="29.00" jamLengthInVehiclesSum="500" jamLengthInMetersSum="2899.90" meanHaltingDuration="505.60" maxHaltingDuration="619.00" haltingDurationSum="2528.00" meanIntervalHaltingDuration="100.00" maxIntervalHaltingDuration="100.00" intervalHaltingDurationSum="500.00" startedHalts="0.00" meanVehicleNumber="5.00" maxVehicleNumber="5" />
   <interval begin="24600.00" end="24700.00" id="e2_L197#2_2_0" sampledSeconds="500.00" nVehEntered="0" nVehLeft="0" nVehSeen="5" meanSpeed="0.00" meanTimeLoss="100.00" meanOccupancy="65.05" maxOccupancy="65.05" meanMaxJamLengthInVehicles="5.00" meanMaxJamLengthInMeters="29.00" maxJamLengthInVehicles="5" maxJamLengthInMeters="29.00" jamLengthInVehiclesSum="500" jamLengthInMetersSum="2899.90" meanHaltingDuration="605.60" maxHaltingDuration="719.00" haltingDurationSum="3028.00" meanIntervalHaltingDuration="100.00" maxIntervalHaltingDuration="100.00" intervalHaltingDurationSum="500.00" startedHalts="0.00" meanVehicleNumber="5.00" maxVehicleNumber="5" />
   <interval begin="24700.00" end="24800.00" id="e2_L197#2_2_0" sampledSeconds="500.00" nVehEntered="0" nVehLeft="0" nVehSeen="5" meanSpeed="0.01" meanTimeLoss="99.93" meanOccupancy="66.19" maxOccupancy="68.05" meanMaxJamLengthInVehicles="5.00" meanMaxJamLengthInMeters="29.40" maxJamLengthInVehicles="5" maxJamLengthInMeters="29.90" jamLengthInVehiclesSum="500" jamLengthInMetersSum="2939.61" meanHaltingDuration="705.60" maxHaltingDuration="819.00" haltingDurationSum="3528.00" meanIntervalHaltingDuration="100.00" maxIntervalHaltingDuration="100.00" intervalHaltingDurationSum="500.00" startedHalts="0.00" meanVehicleNumber="5.00" maxVehicleNumber="5" />
   <interval begin="24800.00" end="24900.00" id="e2_L197#2_2_0" sampledSeconds="500.00" nVehEntered="0" nVehLeft="0" nVehSeen="5" meanSpeed="0.00" meanTimeLoss="100.00" meanOccupancy="68.05" maxOccupancy="68.05" meanMaxJamLengthInVehicles="5.00" meanMaxJamLengthInMeters="29.90" maxJamLengthInVehicles="5" maxJamLengthInMeters="29.90" jamLengthInVehiclesSum="500" jamLengthInMetersSum="2989.89" meanHaltingDuration="805.60" maxHaltingDuration="919.00" haltingDurationSum="4028.00" meanIntervalHaltingDuration="100.00" maxIntervalHaltingDuration="100.00" intervalHaltingDurationSum="500.00" startedHalts="0.00" meanVehicleNumber="5.00" maxVehicleNumber="5" />
   <interval begin="24900.00" end="25000.00" id="e2_L197#2_2_0" sampledSeconds="500.00" nVehEntered="0" nVehLeft="0" nVehSeen="5" meanSpeed="0.00" meanTimeLoss="100.00" meanOccupancy="68.05" maxOccupancy="68.05" meanMaxJamLengthInVehicles="5.00" meanMaxJamLengthInMeters="29.90" maxJamLengthInVehicles="5" maxJamLengthInMeters="29.90" jamLengthInVehiclesSum="500" jamLengthInMetersSum="2989.89" meanHaltingDuration="905.60" maxHaltingDuration="1019.00" haltingDurationSum="4528.00" meanIntervalHaltingDuration="100.00" maxIntervalHaltingDuration="100.00" intervalHaltingDurationSum="500.00" startedHalts="0.00" meanVehicleNumber="5.00" maxVehicleNumber="5" />
   <interval begin="25000.00" end="25100.00" id="e2_L197#2_2_0" sampledSeconds="500.00" nVehEntered="0" nVehLeft="0" nVehSeen="5" meanSpeed="0.00" meanTimeLoss="100.00" meanOccupancy="68.05" maxOccupancy="68.05" meanMaxJamLengthInVehicles="5.00" meanMaxJamLengthInMeters="29.90" maxJamLengthInVehicles="5" maxJamLengthInMeters="29.90" jamLengthInVehiclesSum="500" jamLengthInMetersSum="2989.89" meanHaltingDuration="1005.60" maxHaltingDuration="1119.00" haltingDurationSum="5028.00" meanIntervalHaltingDuration="100.00" maxIntervalHaltingDuration="100.00" intervalHaltingDurationSum="500.00" startedHalts="0.00" meanVehicleNumber="5.00" maxVehicleNumber="5" />
   <interval begin="25100.00" end="25200.00" id="e2_L197#2_2_0" sampledSeconds="500.00" nVehEntered="0" nVehLeft="0" nVehSeen="5" meanSpeed="0.00" meanTimeLoss="100.00" meanOccupancy="68.05" maxOccupancy="68.05" meanMaxJamLengthInVehicles="5.00" meanMaxJamLengthInMeters="29.90" maxJamLengthInVehicles="5" maxJamLengthInMeters="29.90" jamLengthInVehiclesSum="500" jamLengthInMetersSum="2989.89" meanHaltingDuration="1105.60" maxHaltingDuration="1219.00" haltingDurationSum="5528.00" meanIntervalHaltingDuration="100.00" maxIntervalHaltingDuration="100.00" intervalHaltingDurationSum="500.00" startedHalts="0.00" meanVehicleNumber="5.00" maxVehicleNumber="5" />
   <interval begin="25200.00" end="25300.00" id="e2_L197#2_2_0" sampledSeconds="500.00" nVehEntered="0" nVehLeft="0" nVehSeen="5" meanSpeed="0.00" meanTimeLoss="100.00" meanOccupancy="68.05" maxOccupancy="68.05" meanMaxJamLengthInVehicles="5.00" meanMaxJamLengthInMeters="29.90" maxJamLengthInVehicles="5" maxJamLengthInMeters="29.90" jamLengthInVehiclesSum="500" jamLengthInMetersSum="2989.89" meanHaltingDuration="1205.60" maxHaltingDuration="1319.00" haltingDurationSum="6028.00" meanIntervalHaltingDuration="100.00" maxIntervalHaltingDuration="100.00" intervalHaltingDurationSum="500.00" startedHalts="0.00" meanVehicleNumber="5.00" maxVehicleNumber="5" />
   <interval begin="25300.00" end="25400.00" id="e2_L197#2_2_0" sampledSeconds="500.00" nVehEntered="0" nVehLeft="0" nVehSeen="5" meanSpeed="0.00" meanTimeLoss="100.00" meanOccupancy="68.05" maxOccupancy="68.05" meanMaxJamLengthInVehicles="5.00" meanMaxJamLengthInMeters="29.90" maxJamLengthInVehicles="5" maxJamLengthInMeters="29.90" jamLengthInVehiclesSum="500" jamLengthInMetersSum="2989.89" meanHaltingDuration="1305.60" maxHaltingDuration="1419.00" haltingDurationSum="6528.00" meanIntervalHaltingDuration="100.00" maxIntervalHaltingDuration="100.00" intervalHaltingDurationSum="500.00" startedHalts="0.00" meanVehicleNumber="5.00" maxVehicleNumber="5" />
   <interval begin="25400.00" end="25500.00" id="e2_L197#2_2_0" sampledSeconds="426.35" nVehEntered="8" nVehLeft="10" nVehSeen="13" meanSpeed="0.67" meanTimeLoss="31.04" meanOccupancy="57.92" maxOccupancy="68.05" meanMaxJamLengthInVehicles="3.28" meanMaxJamLengthInMeters="19.16" maxJamLengthInVehicles="5" maxJamLengthInMeters="31.01" jamLengthInVehiclesSum="328" jamLengthInMetersSum="1915.60" meanHaltingDuration="291.68" maxHaltingDuration="1448.00" haltingDurationSum="5542.00" meanIntervalHaltingDuration="15.47" maxIntervalHaltingDuration="30.00" intervalHaltingDurationSum="294.00" startedHalts="16.00" meanVehicleNumber="4.31" maxVehicleNumber="5" />
   <interval begin="25500.00" end="25600.00" id="e2_L197#2_2_0" sampledSeconds="454.48" nVehEntered="5" nVehLeft="5" nVehSeen="8" meanSpeed="0.35" meanTimeLoss="55.19" meanOccupancy="60.44" maxOccupancy="65.05" meanMaxJamLengthInVehicles="3.86" meanMaxJamLengthInMeters="22.41" maxJamLengthInVehicles="5" maxJamLengthInMeters="29.93" jamLengthInVehiclesSum="389" jamLengthInMetersSum="2251.00" meanHaltingDuration="22.67" maxHaltingDuration="56.00" haltingDurationSum="408.00" meanIntervalHaltingDuration="22.55" maxIntervalHaltingDuration="56.00" intervalHaltingDurationSum="406.00" startedHalts="17.00" meanVehicleNumber="4.58" maxVehicleNumber="5" />
   <interval begin="25600.00" end="25700.00" id="e2_L197#2_2_0" sampledSeconds="407.27" nVehEntered="12" nVehLeft="10" nVehSeen="15" meanSpeed="0.90" meanTimeLoss="25.19" meanOccupancy="54.90" maxOccupancy="65.05" meanMaxJamLengthInVehicles="2.82" meanMaxJamLengthInMeters="16.38" maxJamLengthInVehicles="5" maxJamLengthInMeters="29.00" jamLengthInVehiclesSum="282" jamLengthInMetersSum="1638.07" meanHaltingDuration="20.93" maxHaltingDuration="60.00" haltingDurationSum="293.00" meanIntervalHaltingDuration="20.93" maxIntervalHaltingDuration="60.00" intervalHaltingDurationSum="293.00" startedHalts="16.00" meanVehicleNumber="4.18" maxVehicleNumber="5" />
   <interval begin="25700.00" end="25800.00" id="e2_L197#2_2_0" sampledSeconds="500.00" nVehEntered="0" nVehLeft="0" nVehSeen="5" meanSpeed="0.00" meanTimeLoss="100.00" meanOccupancy="65.05" maxOccupancy="65.05" meanMaxJamLengthInVehicles="5.00" meanMaxJamLengthInMeters="29.00" maxJamLengthInVehicles="5" maxJamLengthInMeters="29.00" jamLengthInVehiclesSum="500" jamLengthInMetersSum="2899.89" meanHaltingDuration="156.40" maxHaltingDuration="160.00" haltingDurationSum="782.00" meanIntervalHaltingDuration="100.00" maxIntervalHaltingDuration="100.00" intervalHaltingDurationSum="500.00" startedHalts="0.00" meanVehicleNumber="5.00" maxVehicleNumber="5" />
   <interval begin="25800.00" end="25900.00" id="e2_L197#2_2_0" sampledSeconds="491.25" nVehEntered="1" nVehLeft="1" nVehSeen="6" meanSpeed="0.07" meanTimeLoss="81.41" meanOccupancy="64.21" maxOccupancy="65.05" meanMaxJamLengthInVehicles="4.76" meanMaxJamLengthInMeters="27.70" maxJamLengthInVehicles="5" maxJamLengthInMeters="30.94" jamLengthInVehiclesSum="479" jamLengthInMetersSum="2782.72" meanHaltingDuration="126.60" maxHaltingDuration="209.00" haltingDurationSum="1266.00" meanIntervalHaltingDuration="48.40" maxIntervalHaltingDuration="57.00" intervalHaltingDurationSum="484.00" startedHalts="5.00" meanVehicleNumber="4.92" maxVehicleNumber="5" />