<?xml version="1.0" encoding="UTF-8"?>

<!-- generated on Sun Feb 17 15:57:00 2019 by 
<configuration xmlns:xsi="http://www.w3.org/2001/XMLSchema-instance" xsi:noNamespaceSchemaLocation="http://sumo.dlr.de/xsd/Configuration.xsd">

    <input>
        <net-file value="/home/sda/Documents/sumo-sathorn-ray/models/sathorn-morning/sathorn_w_fixed_20160404.net.xml"/>
        <route-files value="/home/sda/Documents/sumo-sathorn-ray/models/sathorn-morning/Great-route/sathorn_w_20160422edit2.rou.xml"/>
        <additional-files value="/home/sda/Documents/sumo-sathorn-ray/models/sathorn-morning/sathon_wide_tls_20160418_edited.add.xml,/home/sda/Documents/sumo-sathorn-ray/detectors/sathorn_w_detectors.add.xml"/>
    </input>

    <time>
        <begin value="21600"/>
        <end value="32400"/>
        <step-length value="1"/>
    </time>

    <processing>
        <no-internal-links value="true"/>
        <ignore-junction-blocker value="-1"/>
        <time-to-teleport value="-1"/>
        <eager-insert value="true"/>
        <time-to-impatience value="300"/>
    </processing>

    <report>
        <no-warnings value="true"/>
    </report>

    <random_number>
        <random value="false"/>
        <seed value="20"/>
    </random_number>

    <gui_only>
        <gui-settings-file value="/home/sda/Documents/sumo-sathorn-ray/gui-settings/gui-settings-file-surasak.xml"/>
        <quit-on-end value="true"/>
        <start value="true"/>
        <tracker-interval value="1"/>
    </gui_only>

</configuration>
-->

<detector xmlns:xsi="http://www.w3.org/2001/XMLSchema-instance" xsi:noNamespaceSchemaLocation="http://sumo.dlr.de/xsd/det_e2_file.xsd">
   <interval begin="21600.00" end="21700.00" id="e2_L30_1_0" sampledSeconds="0.00" nVehEntered="0" nVehLeft="0" nVehSeen="0" meanSpeed="-1.00" meanTimeLoss="-1.00" meanOccupancy="0.00" maxOccupancy="0.00" meanMaxJamLengthInVehicles="0.00" meanMaxJamLengthInMeters="0.00" maxJamLengthInVehicles="0" maxJamLengthInMeters="0.00" jamLengthInVehiclesSum="0" jamLengthInMetersSum="0.00" meanHaltingDuration="0.00" maxHaltingDuration="0.00" haltingDurationSum="0.00" meanIntervalHaltingDuration="0.00" maxIntervalHaltingDuration="0.00" intervalHaltingDurationSum="0.00" startedHalts="0.00" meanVehicleNumber="0.00" maxVehicleNumber="0" />
   <interval begin="21700.00" end="21800.00" id="e2_L30_1_0" sampledSeconds="0.68" nVehEntered="1" nVehLeft="1" nVehSeen="1" meanSpeed="11.68" meanTimeLoss="0.04" meanOccupancy="0.00" maxOccupancy="0.00" meanMaxJamLengthInVehicles="0.00" meanMaxJamLengthInMeters="0.00" maxJamLengthInVehicles="0" maxJamLengthInMeters="0.00" jamLengthInVehiclesSum="0" jamLengthInMetersSum="0.00" meanHaltingDuration="0.00" maxHaltingDuration="0.00" haltingDurationSum="0.00" meanIntervalHaltingDuration="0.00" maxIntervalHaltingDuration="0.00" intervalHaltingDurationSum="0.00" startedHalts="0.00" meanVehicleNumber="0.01" maxVehicleNumber="1" />
   <interval begin="21800.00" end="21900.00" id="e2_L30_1_0" sampledSeconds="20.66" nVehEntered="7" nVehLeft="7" nVehSeen="7" meanSpeed="8.77" meanTimeLoss="0.88" meanOccupancy="1.55" maxOccupancy="16.31" meanMaxJamLengthInVehicles="0.00" meanMaxJamLengthInMeters="0.00" maxJamLengthInVehicles="0" maxJamLengthInMeters="0.00" jamLengthInVehiclesSum="0" jamLengthInMetersSum="0.00" meanHaltingDuration="0.00" maxHaltingDuration="0.00" haltingDurationSum="0.00" meanIntervalHaltingDuration="0.00" maxIntervalHaltingDuration="0.00" intervalHaltingDurationSum="0.00" startedHalts="0.00" meanVehicleNumber="0.23" maxVehicleNumber="2" />
   <interval begin="21900.00" end="22000.00" id="e2_L30_1_0" sampledSeconds="10.01" nVehEntered="5" nVehLeft="5" nVehSeen="5" meanSpeed="11.17" meanTimeLoss="0.18" meanOccupancy="0.74" maxOccupancy="18.48" meanMaxJamLengthInVehicles="0.00" meanMaxJamLengthInMeters="0.00" maxJamLengthInVehicles="0" maxJamLengthInMeters="0.00" jamLengthInVehiclesSum="0" jamLengthInMetersSum="0.00" meanHaltingDuration="0.00" maxHaltingDuration="0.00" haltingDurationSum="0.00" meanIntervalHaltingDuration="0.00" maxIntervalHaltingDuration="0.00" intervalHaltingDurationSum="0.00" startedHalts="0.00" meanVehicleNumber="0.13" maxVehicleNumber="2" />
   <interval begin="22000.00" end="22100.00" id="e2_L30_1_0" sampledSeconds="3.97" nVehEntered="2" nVehLeft="2" nVehSeen="2" meanSpeed="12.01" meanTimeLoss="0.08" meanOccupancy="0.28" maxOccupancy="9.24" meanMaxJamLengthInVehicles="0.00" meanMaxJamLengthInMeters="0.00" maxJamLengthInVehicles="0" maxJamLengthInMeters="0.00" jamLengthInVehiclesSum="0" jamLengthInMetersSum="0.00" meanHaltingDuration="0.00" maxHaltingDuration="0.00" haltingDurationSum="0.00" meanIntervalHaltingDuration="0.00" maxIntervalHaltingDuration="0.00" intervalHaltingDurationSum="0.00" startedHalts="0.00" meanVehicleNumber="0.05" maxVehicleNumber="1" />
   <interval begin="22100.00" end="22200.00" id="e2_L30_1_0" sampledSeconds="23.49" nVehEntered="9" nVehLeft="8" nVehSeen="9" meanSpeed="8.64" meanTimeLoss="0.75" meanOccupancy="1.83" maxOccupancy="18.48" meanMaxJamLengthInVehicles="0.00" meanMaxJamLengthInMeters="0.00" maxJamLengthInVehicles="0" maxJamLengthInMeters="0.00" jamLengthInVehiclesSum="0" jamLengthInMetersSum="0.00" meanHaltingDuration="0.00" maxHaltingDuration="0.00" haltingDurationSum="0.00" meanIntervalHaltingDuration="0.00" maxIntervalHaltingDuration="0.00" intervalHaltingDurationSum="0.00" startedHalts="0.00" meanVehicleNumber="0.26" maxVehicleNumber="2" />
   <interval begin="22200.00" end="22300.00" id="e2_L30_1_0" sampledSeconds="16.58" nVehEntered="5" nVehLeft="6" nVehSeen="6" meanSpeed="11.13" meanTimeLoss="0.30" meanOccupancy="1.13" maxOccupancy="9.24" meanMaxJamLengthInVehicles="0.00" meanMaxJamLengthInMeters="0.00" maxJamLengthInVehicles="0" maxJamLengthInMeters="0.00" jamLengthInVehiclesSum="0" jamLengthInMetersSum="0.00" meanHaltingDuration="0.00" maxHaltingDuration="0.00" haltingDurationSum="0.00" meanIntervalHaltingDuration="0.00" maxIntervalHaltingDuration="0.00" intervalHaltingDurationSum="0.00" startedHalts="0.00" meanVehicleNumber="0.19" maxVehicleNumber="1" />
   <interval begin="22300.00" end="22400.00" id="e2_L30_1_0" sampledSeconds="13.57" nVehEntered="6" nVehLeft="6" nVehSeen="6" meanSpeed="10.81" meanTimeLoss="0.31" meanOccupancy="0.93" maxOccupancy="9.24" meanMaxJamLengthInVehicles="0.00" meanMaxJamLengthInMeters="0.00" maxJamLengthInVehicles="0" maxJamLengthInMeters="0.00" jamLengthInVehiclesSum="0" jamLengthInMetersSum="0.00" meanHaltingDuration="0.00" maxHaltingDuration="0.00" haltingDurationSum="0.00" meanIntervalHaltingDuration="0.00" maxIntervalHaltingDuration="0.00" intervalHaltingDurationSum="0.00" startedHalts="0.00" meanVehicleNumber="0.17" maxVehicleNumber="1" />
   <interval begin="22400.00" end="22500.00" id="e2_L30_1_0" sampledSeconds="9.44" nVehEntered="5" nVehLeft="5" nVehSeen="5" meanSpeed="11.63" meanTimeLoss="0.13" meanOccupancy="0.64" maxOccupancy="9.24" meanMaxJamLengthInVehicles="0.00" meanMaxJamLengthInMeters="0.00" maxJamLengthInVehicles="0" maxJamLengthInMeters="0.00" jamLengthInVehiclesSum="0" jamLengthInMetersSum="0.00" meanHaltingDuration="0.00" maxHaltingDuration="0.00" haltingDurationSum="0.00" meanIntervalHaltingDuration="0.00" maxIntervalHaltingDuration="0.00" intervalHaltingDurationSum="0.00" startedHalts="0.00" meanVehicleNumber="0.12" maxVehicleNumber="1" />
   <interval begin="22500.00" end="22600.00" id="e2_L30_1_0" sampledSeconds="28.50" nVehEntered="12" nVehLeft="12" nVehSeen="12" meanSpeed="10.78" meanTimeLoss="0.33" meanOccupancy="1.94" maxOccupancy="9.24" meanMaxJamLengthInVehicles="0.00" meanMaxJamLengthInMeters="0.00" maxJamLengthInVehicles="0" maxJamLengthInMeters="0.00" jamLengthInVehiclesSum="0" jamLengthInMetersSum="0.00" meanHaltingDuration="0.00" maxHaltingDuration="0.00" haltingDurationSum="0.00" meanIntervalHaltingDuration="0.00" maxIntervalHaltingDuration="0.00" intervalHaltingDurationSum="0.00" startedHalts="0.00" meanVehicleNumber="0.35" maxVehicleNumber="1" />
   <interval begin="22600.00" end="22700.00" id="e2_L30_1_0" sampledSeconds="9.80" nVehEntered="7" nVehLeft="7" nVehSeen="7" meanSpeed="11.37" meanTimeLoss="0.13" meanOccupancy="0.55" maxOccupancy="9.24" meanMaxJamLengthInVehicles="0.00" meanMaxJamLengthInMeters="0.00" maxJamLengthInVehicles="0" maxJamLengthInMeters="0.00" jamLengthInVehiclesSum="0" jamLengthInMetersSum="0.00" meanHaltingDuration="0.00" maxHaltingDuration="0.00" haltingDurationSum="0.00" meanIntervalHaltingDuration="0.00" maxIntervalHaltingDuration="0.00" intervalHaltingDurationSum="0.00" startedHalts="0.00" meanVehicleNumber="0.13" maxVehicleNumber="1" />
   <interval begin="22700.00" end="22800.00" id="e2_L30_1_0" sampledSeconds="18.05" nVehEntered="8" nVehLeft="7" nVehSeen="8" meanSpeed="11.36" meanTimeLoss="0.20" meanOccupancy="1.29" maxOccupancy="9.24" meanMaxJamLengthInVehicles="0.00" meanMaxJamLengthInMeters="0.00" maxJamLengthInVehicles="0" maxJamLengthInMeters="0.00" jamLengthInVehiclesSum="0" jamLengthInMetersSum="0.00" meanHaltingDuration="0.00" maxHaltingDuration="0.00" haltingDurationSum="0.00" meanIntervalHaltingDuration="0.00" maxIntervalHaltingDuration="0.00" intervalHaltingDurationSum="0.00" startedHalts="0.00" meanVehicleNumber="0.21" maxVehicleNumber="2" />
   <interval begin="22800.00" end="22900.00" id="e2_L30_1_0" sampledSeconds="30.68" nVehEntered="15" nVehLeft="16" nVehSeen="16" meanSpeed="10.55" meanTimeLoss="0.30" meanOccupancy="1.79" maxOccupancy="9.24" meanMaxJamLengthInVehicles="0.00" meanMaxJamLengthInMeters="0.00" maxJamLengthInVehicles="0" maxJamLengthInMeters="0.00" jamLengthInVehiclesSum="0" jamLengthInMetersSum="0.00" meanHaltingDuration="0.00" maxHaltingDuration="0.00" haltingDurationSum="0.00" meanIntervalHaltingDuration="0.00" maxIntervalHaltingDuration="0.00" intervalHaltingDurationSum="0.00" startedHalts="0.00" meanVehicleNumber="0.37" maxVehicleNumber="2" />
   <interval begin="22900.00" end="23000.00" id="e2_L30_1_0" sampledSeconds="20.00" nVehEntered="9" nVehLeft="9" nVehSeen="9" meanSpeed="11.52" meanTimeLoss="0.17" meanOccupancy="1.26" maxOccupancy="9.24" meanMaxJamLengthInVehicles="0.00" meanMaxJamLengthInMeters="0.00" maxJamLengthInVehicles="0" maxJamLengthInMeters="0.00" jamLengthInVehiclesSum="0" jamLengthInMetersSum="0.00" meanHaltingDuration="0.00" maxHaltingDuration="0.00" haltingDurationSum="0.00" meanIntervalHaltingDuration="0.00" maxIntervalHaltingDuration="0.00" intervalHaltingDurationSum="0.00" startedHalts="0.00" meanVehicleNumber="0.26" maxVehicleNumber="1" />
   <interval begin="23000.00" end="23100.00" id="e2_L30_1_0" sampledSeconds="10.36" nVehEntered="5" nVehLeft="5" nVehSeen="5" meanSpeed="11.88" meanTimeLoss="0.10" meanOccupancy="0.67" maxOccupancy="9.24" meanMaxJamLengthInVehicles="0.00" meanMaxJamLengthInMeters="0.00" maxJamLengthInVehicles="0" maxJamLengthInMeters="0.00" jamLengthInVehiclesSum="0" jamLengthInMetersSum="0.00" meanHaltingDuration="0.00" maxHaltingDuration="0.00" haltingDurationSum="0.00" meanIntervalHaltingDuration="0.00" maxIntervalHaltingDuration="0.00" intervalHaltingDurationSum="0.00" startedHalts="0.00" meanVehicleNumber="0.13" maxVehicleNumber="2" />
   <interval begin="23100.00" end="23200.00" id="e2_L30_1_0" sampledSeconds="25.85" nVehEntered="9" nVehLeft="8" nVehSeen="9" meanSpeed="10.78" meanTimeLoss="0.39" meanOccupancy="1.85" maxOccupancy="18.48" meanMaxJamLengthInVehicles="0.00" meanMaxJamLengthInMeters="0.00" maxJamLengthInVehicles="0" maxJamLengthInMeters="0.00" jamLengthInVehiclesSum="0" jamLengthInMetersSum="0.00" meanHaltingDuration="0.00" maxHaltingDuration="0.00" haltingDurationSum="0.00" meanIntervalHaltingDuration="0.00" maxIntervalHaltingDuration="0.00" intervalHaltingDurationSum="0.00" startedHalts="0.00" meanVehicleNumber="0.31" maxVehicleNumber="2" />
   <interval begin="23200.00" end="23300.00" id="e2_L30_1_0" sampledSeconds="32.87" nVehEntered="16" nVehLeft="16" nVehSeen="17" meanSpeed="10.95" meanTimeLoss="0.21" meanOccupancy="2.04" maxOccupancy="18.48" meanMaxJamLengthInVehicles="0.00" meanMaxJamLengthInMeters="0.00" maxJamLengthInVehicles="0" maxJamLengthInMeters="0.00" jamLengthInVehiclesSum="0" jamLengthInMetersSum="0.00" meanHaltingDuration="0.00" maxHaltingDuration="0.00" haltingDurationSum="0.00" meanIntervalHaltingDuration="0.00" maxIntervalHaltingDuration="0.00" intervalHaltingDurationSum="0.00" startedHalts="0.00" meanVehicleNumber="0.40" maxVehicleNumber="2" />
   <interval begin="23300.00" end="23400.00" id="e2_L30_1_0" sampledSeconds="130.35" nVehEntered="24" nVehLeft="24" nVehSeen="25" meanSpeed="3.98" meanTimeLoss="3.55" meanOccupancy="10.09" maxOccupancy="27.72" meanMaxJamLengthInVehicles="0.36" meanMaxJamLengthInMeters="1.94" maxJamLengthInVehicles="2" maxJamLengthInMeters="13.27" jamLengthInVehiclesSum="37" jamLengthInMetersSum="193.88" meanHaltingDuration="4.78" maxHaltingDuration="17.00" haltingDurationSum="43.00" meanIntervalHaltingDuration="4.78" maxIntervalHaltingDuration="17.00" intervalHaltingDurationSum="43.00" startedHalts="11.00" meanVehicleNumber="1.39" maxVehicleNumber="4" />
   <interval begin="23400.00" end="23500.00" id="e2_L30_1_0" sampledSeconds="292.05" nVehEntered="14" nVehLeft="15" nVehSeen="15" meanSpeed="1.53" meanTimeLoss="17.08" meanOccupancy="25.04" maxOccupancy="55.44" meanMaxJamLengthInVehicles="1.46" meanMaxJamLengthInMeters="8.91" maxJamLengthInVehicles="6" maxJamLengthInMeters="40.35" jamLengthInVehiclesSum="150" jamLengthInMetersSum="909.00" meanHaltingDuration="7.00" maxHaltingDuration="41.00" haltingDurationSum="175.00" meanIntervalHaltingDuration="7.00" maxIntervalHaltingDuration="41.00" intervalHaltingDurationSum="175.00" startedHalts="25.00" meanVehicleNumber="2.97" maxVehicleNumber="7" />
   <interval begin="23500.00" end="23600.00" id="e2_L30_1_0" sampledSeconds="290.35" nVehEntered="9" nVehLeft="9" nVehSeen="9" meanSpeed="1.15" meanTimeLoss="29.28" meanOccupancy="25.35" maxOccupancy="55.00" meanMaxJamLengthInVehicles="1.78" meanMaxJamLengthInMeters="11.04" maxJamLengthInVehicles="6" maxJamLengthInMeters="40.99" jamLengthInVehiclesSum="180" jamLengthInMetersSum="1112.40" meanHaltingDuration="11.00" maxHaltingDuration="51.00" haltingDurationSum="198.00" meanIntervalHaltingDuration="11.00" maxIntervalHaltingDuration="51.00" intervalHaltingDurationSum="198.00" startedHalts="19.00" meanVehicleNumber="2.97" maxVehicleNumber="6" />
   <interval begin="23600.00" end="23700.00" id="e2_L30_1_0" sampledSeconds="13.50" nVehEntered="4" nVehLeft="4" nVehSeen="4" meanSpeed="9.67" meanTimeLoss="0.77" meanOccupancy="1.01" maxOccupancy="9.24" meanMaxJamLengthInVehicles="0.00" meanMaxJamLengthInMeters="0.00" maxJamLengthInVehicles="0" maxJamLengthInMeters="0.00" jamLengthInVehiclesSum="0" jamLengthInMetersSum="0.00" meanHaltingDuration="0.00" maxHaltingDuration="0.00" haltingDurationSum="0.00" meanIntervalHaltingDuration="0.00" maxIntervalHaltingDuration="0.00" intervalHaltingDurationSum="0.00" startedHalts="0.00" meanVehicleNumber="0.16" maxVehicleNumber="1" />
   <interval begin="23700.00" end="23800.00" id="e2_L30_1_0" sampledSeconds="13.97" nVehEntered="5" nVehLeft="5" nVehSeen="5" meanSpeed="10.93" meanTimeLoss="0.35" meanOccupancy="1.02" maxOccupancy="9.24" meanMaxJamLengthInVehicles="0.00" meanMaxJamLengthInMeters="0.00" maxJamLengthInVehicles="0" maxJamLengthInMeters="0.00" jamLengthInVehiclesSum="0" jamLengthInMetersSum="0.00" meanHaltingDuration="0.00" maxHaltingDuration="0.00" haltingDurationSum="0.00" meanIntervalHaltingDuration="0.00" maxIntervalHaltingDuration="0.00" intervalHaltingDurationSum="0.00" startedHalts="0.00" meanVehicleNumber="0.16" maxVehicleNumber="1" />
   <interval begin="23800.00" end="23900.00" id="e2_L30_1_0" sampledSeconds="15.89" nVehEntered="6" nVehLeft="6" nVehSeen="6" meanSpeed="8.76" meanTimeLoss="0.79" meanOccupancy="1.15" maxOccupancy="18.48" meanMaxJamLengthInVehicles="0.00" meanMaxJamLengthInMeters="0.00" maxJamLengthInVehicles="0" maxJamLengthInMeters="0.00" jamLengthInVehiclesSum="0" jamLengthInMetersSum="0.00" meanHaltingDuration="0.00" maxHaltingDuration="0.00" haltingDurationSum="0.00" meanIntervalHaltingDuration="0.00" maxIntervalHaltingDuration="0.00" intervalHaltingDurationSum="0.00" startedHalts="0.00" meanVehicleNumber="0.19" maxVehicleNumber="2" />
   <interval begin="23900.00" end="24000.00" id="e2_L30_1_0" sampledSeconds="8.92" nVehEntered="3" nVehLeft="3" nVehSeen="3" meanSpeed="10.81" meanTimeLoss="0.40" meanOccupancy="0.64" maxOccupancy="9.24" meanMaxJamLengthInVehicles="0.00" meanMaxJamLengthInMeters="0.00" maxJamLengthInVehicles="0" maxJamLengthInMeters="0.00" jamLengthInVehiclesSum="0" jamLengthInMetersSum="0.00" meanHaltingDuration="0.00" maxHaltingDuration="0.00" haltingDurationSum="0.00" meanIntervalHaltingDuration="0.00" maxIntervalHaltingDuration="0.00" intervalHaltingDurationSum="0.00" startedHalts="0.00" meanVehicleNumber="0.11" maxVehicleNumber="1" />
   <interval begin="24000.00" end="24100.00" id="e2_L30_1_0" sampledSeconds="16.01" nVehEntered="6" nVehLeft="6" nVehSeen="6" meanSpeed="10.85" meanTimeLoss="0.35" meanOccupancy="1.11" maxOccupancy="9.24" meanMaxJamLengthInVehicles="0.00" meanMaxJamLengthInMeters="0.00" maxJamLengthInVehicles="0" maxJamLengthInMeters="0.00" jamLengthInVehiclesSum="0" jamLengthInMetersSum="0.00" meanHaltingDuration="0.00" maxHaltingDuration="0.00" haltingDurationSum="0.00" meanIntervalHaltingDuration="0.00" maxIntervalHaltingDuration="0.00" intervalHaltingDurationSum="0.00" startedHalts="0.00" meanVehicleNumber="0.20" maxVehicleNumber="1" />
   <interval begin="24100.00" end="24200.00" id="e2_L30_1_0" sampledSeconds="66.67" nVehEntered="10" nVehLeft="10" nVehSeen="10" meanSpeed="3.83" meanTimeLoss="4.62" meanOccupancy="4.87" maxOccupancy="21.59" meanMaxJamLengthInVehicles="0.24" meanMaxJamLengthInMeters="1.43" maxJamLengthInVehicles="3" maxJamLengthInMeters="20.12" jamLengthInVehiclesSum="24" jamLengthInMetersSum="142.53" meanHaltingDuration="4.40" maxHaltingDuration="11.00" haltingDurationSum="22.00" meanIntervalHaltingDuration="4.40" maxIntervalHaltingDuration="11.00" intervalHaltingDurationSum="22.00" startedHalts="6.00" meanVehicleNumber="0.72" maxVehicleNumber="3" />
   <interval begin="24200.00" end="24300.00" id="e2_L30_1_0" sampledSeconds="21.51" nVehEntered="5" nVehLeft="5" nVehSeen="5" meanSpeed="9.62" meanTimeLoss="0.99" meanOccupancy="1.71" maxOccupancy="9.24" meanMaxJamLengthInVehicles="0.00" meanMaxJamLengthInMeters="0.00" maxJamLengthInVehicles="0" maxJamLengthInMeters="0.00" jamLengthInVehiclesSum="0" jamLengthInMetersSum="0.00" meanHaltingDuration="0.00" maxHaltingDuration="0.00" haltingDurationSum="0.00" meanIntervalHaltingDuration="0.00" maxIntervalHaltingDuration="0.00" intervalHaltingDurationSum="0.00" startedHalts="0.00" meanVehicleNumber="0.24" maxVehicleNumber="1" />
   <interval begin="24300.00" end="24400.00" id="e2_L30_1_0" sampledSeconds="6.68" nVehEntered="3" nVehLeft="3" nVehSeen="3" meanSpeed="10.52" meanTimeLoss="0.35" meanOccupancy="0.43" maxOccupancy="9.24" meanMaxJamLengthInVehicles="0.00" meanMaxJamLengthInMeters="0.00" maxJamLengthInVehicles="0" maxJamLengthInMeters="0.00" jamLengthInVehiclesSum="0" jamLengthInMetersSum="0.00" meanHaltingDuration="0.00" maxHaltingDuration="0.00" haltingDurationSum="0.00" meanIntervalHaltingDuration="0.00" maxIntervalHaltingDuration="0.00" intervalHaltingDurationSum="0.00" startedHalts="0.00" meanVehicleNumber="0.08" maxVehicleNumber="1" />
   <interval begin="24400.00" end="24500.00" id="e2_L30_1_0" sampledSeconds="32.72" nVehEntered="10" nVehLeft="10" nVehSeen="10" meanSpeed="9.70" meanTimeLoss="0.73" meanOccupancy="2.48" maxOccupancy="18.48" meanMaxJamLengthInVehicles="0.00" meanMaxJamLengthInMeters="0.00" maxJamLengthInVehicles="0" maxJamLengthInMeters="0.00" jamLengthInVehiclesSum="0" jamLengthInMetersSum="0.00" meanHaltingDuration="0.00" maxHaltingDuration="0.00" haltingDurationSum="0.00" meanIntervalHaltingDuration="0.00" maxIntervalHaltingDuration="0.00" intervalHaltingDurationSum="0.00" startedHalts="0.00" meanVehicleNumber="0.38" maxVehicleNumber="2" />
   <interval begin="24500.00" end="24600.00" id="e2_L30_1_0" sampledSeconds="6.60" nVehEntered="3" nVehLeft="3" nVehSeen="3" meanSpeed="11.70" meanTimeLoss="0.10" meanOccupancy="0.46" maxOccupancy="9.24" meanMaxJamLengthInVehicles="0.00" meanMaxJamLengthInMeters="0.00" maxJamLengthInVehicles="0" maxJamLengthInMeters="0.00" jamLengthInVehiclesSum="0" jamLengthInMetersSum="0.00" meanHaltingDuration="0.00" maxHaltingDuration="0.00" haltingDurationSum="0.00" meanIntervalHaltingDuration="0.00" maxIntervalHaltingDuration="0.00" intervalHaltingDurationSum="0.00" startedHalts="0.00" meanVehicleNumber="0.08" maxVehicleNumber="1" />
   <interval begin="24600.00" end="24700.00" id="e2_L30_1_0" sampledSeconds="23.77" nVehEntered="17" nVehLeft="16" nVehSeen="17" meanSpeed="9.47" meanTimeLoss="0.34" meanOccupancy="1.30" maxOccupancy="9.24" meanMaxJamLengthInVehicles="0.00" meanMaxJamLengthInMeters="0.00" maxJamLengthInVehicles="0" maxJamLengthInMeters="0.00" jamLengthInVehiclesSum="0" jamLengthInMetersSum="0.00" meanHaltingDuration="0.00" maxHaltingDuration="0.00" haltingDurationSum="0.00" meanIntervalHaltingDuration="0.00" maxIntervalHaltingDuration="0.00" intervalHaltingDurationSum="0.00" startedHalts="0.00" meanVehicleNumber="0.31" maxVehicleNumber="2" />
   <interval begin="24700.00" end="24800.00" id="e2_L30_1_0" sampledSeconds="490.35" nVehEntered="8" nVehLeft="6" nVehSeen="9" meanSpeed="0.46" meanTimeLoss="52.47" meanOccupancy="43.67" maxOccupancy="63.28" meanMaxJamLengthInVehicles="4.07" meanMaxJamLengthInMeters="26.52" maxJamLengthInVehicles="7" maxJamLengthInMeters="48.10" jamLengthInVehiclesSum="407" jamLengthInMetersSum="2651.97" meanHaltingDuration="41.60" maxHaltingDuration="78.00" haltingDurationSum="416.00" meanIntervalHaltingDuration="41.60" maxIntervalHaltingDuration="78.00" intervalHaltingDurationSum="416.00" startedHalts="11.00" meanVehicleNumber="4.92" maxVehicleNumber="7" />
   <interval begin="24800.00" end="24900.00" id="e2_L30_1_0" sampledSeconds="416.07" nVehEntered="14" nVehLeft="11" nVehSeen="17" meanSpeed="0.93" meanTimeLoss="22.64" meanOccupancy="37.06" maxOccupancy="55.03" meanMaxJamLengthInVehicles="3.12" meanMaxJamLengthInMeters="20.39" maxJamLengthInVehicles="6" maxJamLengthInMeters="39.83" jamLengthInVehiclesSum="312" jamLengthInMetersSum="2038.65" meanHaltingDuration="25.00" maxHaltingDuration="54.00" haltingDurationSum="325.00" meanIntervalHaltingDuration="25.00" maxIntervalHaltingDuration="54.00" intervalHaltingDurationSum="325.00" startedHalts="15.00" meanVehicleNumber="4.18" maxVehicleNumber="6" />
   <interval begin="24900.00" end="25000.00" id="e2_L30_1_0" sampledSeconds="600.00" nVehEntered="0" nVehLeft="0" nVehSeen="6" meanSpeed="0.00" meanTimeLoss="99.97" meanOccupancy="53.99" maxOccupancy="54.29" meanMaxJamLengthInVehicles="6.00" meanMaxJamLengthInMeters="39.60" maxJamLengthInVehicles="6" maxJamLengthInMeters="39.94" jamLengthInVehiclesSum="600" jamLengthInMetersSum="3960.37" meanHaltingDuration="148.00" maxHaltingDuration="154.00" haltingDurationSum="888.00" meanIntervalHaltingDuration="100.00" maxIntervalHaltingDuration="100.00" intervalHaltingDurationSum="600.00" startedHalts="0.00" meanVehicleNumber="6.00" maxVehicleNumber="6" />
   <interval begin="25000.00" end="25100.00" id="e2_L30_1_0" sampledSeconds="193.81" nVehEntered="4" nVehLeft="10" nVehSeen="10" meanSpeed="1.50" meanTimeLoss="17.06" meanOccupancy="16.72" maxOccupancy="53.98" meanMaxJamLengthInVehicles="1.19" meanMaxJamLengthInMeters="7.80" maxJamLengthInVehicles="6" maxJamLengthInMeters="40.27" jamLengthInVehiclesSum="119" jamLengthInMetersSum="780.07" meanHaltingDuration="101.10" maxHaltingDuration="172.00" haltingDurationSum="1011.00" meanIntervalHaltingDuration="12.30" maxIntervalHaltingDuration="23.00" intervalHaltingDurationSum="123.00" startedHalts="4.00" meanVehicleNumber="1.98" maxVehicleNumber="6" />
   <interval begin="25100.00" end="25200.00" id="e2_L30_1_0" sampledSeconds="15.47" nVehEntered="4" nVehLeft="4" nVehSeen="4" meanSpeed="4.90" meanTimeLoss="2.30" meanOccupancy="1.02" maxOccupancy="11.42" meanMaxJamLengthInVehicles="0.00" meanMaxJamLengthInMeters="0.00" maxJamLengthInVehicles="0" maxJamLengthInMeters="0.00" jamLengthInVehiclesSum="0" jamLengthInMetersSum="0.00" meanHaltingDuration="0.00" maxHaltingDuration="0.00" haltingDurationSum="0.00" meanIntervalHaltingDuration="0.00" maxIntervalHaltingDuration="0.00" intervalHaltingDurationSum="0.00" startedHalts="0.00" meanVehicleNumber="0.18" maxVehicleNumber="2" />
   <interval begin="25200.00" end="25300.00" id="e2_L30_1_0" sampledSeconds="194.25" nVehEntered="15" nVehLeft="10" nVehSeen="15" meanSpeed="0.97" meanTimeLoss="11.94" meanOccupancy="16.93" maxOccupancy="45.04" meanMaxJamLengthInVehicles="1.31" meanMaxJamLengthInMeters="8.08" maxJamLengthInVehicles="5" maxJamLengthInMeters="32.60" jamLengthInVehiclesSum="131" jamLengthInMetersSum="808.15" meanHaltingDuration="16.50" maxHaltingDuration="43.00" haltingDurationSum="132.00" meanIntervalHaltingDuration="16.50" maxIntervalHaltingDuration="43.00" intervalHaltingDurationSum="132.00" startedHalts="13.00" meanVehicleNumber="1.96" maxVehicleNumber="5" />
   <interval begin="25300.00" end="25400.00" id="e2_L30_1_0" sampledSeconds="415.21" nVehEntered="5" nVehLeft="8" nVehSeen="10" meanSpeed="0.49" meanTimeLoss="39.89" meanOccupancy="36.53" maxOccupancy="45.04" meanMaxJamLengthInVehicles="3.55" meanMaxJamLengthInMeters="23.07" maxJamLengthInVehicles="5" maxJamLengthInMeters="35.31" jamLengthInVehiclesSum="355" jamLengthInMetersSum="2307.33" meanHaltingDuration="48.90" maxHaltingDuration="108.00" haltingDurationSum="489.00" meanIntervalHaltingDuration="36.00" maxIntervalHaltingDuration="70.00" intervalHaltingDurationSum="360.00" startedHalts="5.00" meanVehicleNumber="4.19" maxVehicleNumber="5" />
   <interval begin="25400.00" end="25500.00" id="e2_L30_1_0" sampledSeconds="22.88" nVehEntered="4" nVehLeft="6" nVehSeen="6" meanSpeed="4.99" meanTimeLoss="2.29" meanOccupancy="1.58" maxOccupancy="10.69" meanMaxJamLengthInVehicles="0.01" meanMaxJamLengthInMeters="0.01" maxJamLengthInVehicles="1" maxJamLengthInMeters="0.73" jamLengthInVehiclesSum="1" jamLengthInMetersSum="0.73" meanHaltingDuration="2.00" maxHaltingDuration="2.00" haltingDurationSum="2.00" meanIntervalHaltingDuration="1.00" maxIntervalHaltingDuration="1.00" intervalHaltingDurationSum="1.00" startedHalts="0.00" meanVehicleNumber="0.26" maxVehicleNumber="2" />
   <interval begin="25500.00" end="25600.00" id="e2_L30_1_0" sampledSeconds="15.93" nVehEntered="4" nVehLeft="3" nVehSeen="4" meanSpeed="7.31" meanTimeLoss="1.65" meanOccupancy="1.21" maxOccupancy="9.24" meanMaxJamLengthInVehicles="0.00" meanMaxJamLengthInMeters="0.00" maxJamLengthInVehicles="0" maxJamLengthInMeters="0.00" jamLengthInVehiclesSum="0" jamLengthInMetersSum="0.00" meanHaltingDuration="0.00" maxHaltingDuration="0.00" haltingDurationSum="0.00" meanIntervalHaltingDuration="0.00" maxIntervalHaltingDuration="0.00" intervalHaltingDurationSum="0.00" startedHalts="0.00" meanVehicleNumber="0.17" maxVehicleNumber="1" />
   <interval begin="25600.00" end="25700.00" id="e2_L30_1_0" sampledSeconds="63.40" nVehEntered="14" nVehLeft="15" nVehSeen="15" meanSpeed="4.66" meanTimeLoss="2.64" meanOccupancy="4.81" maxOccupancy="26.27" meanMaxJamLengthInVehicles="0.15" meanMaxJamLengthInMeters="0.78" maxJamLengthInVehicles="2" maxJamLengthInMeters="13.11" jamLengthInVehiclesSum="15" jamLengthInMetersSum="77.58" meanHaltingDuration="6.00" maxHaltingDuration="12.00" haltingDurationSum="18.00" meanIntervalHaltingDuration="6.00" maxIntervalHaltingDuration="12.00" intervalHaltingDurationSum="18.00" startedHalts="4.00" meanVehicleNumber="0.69" maxVehicleNumber="3" />
   <interval begin="25700.00" end="25800.00" id="e2_L30_1_0" sampledSeconds="20.81" nVehEntered="6" nVehLeft="5" nVehSeen="6" meanSpeed="4.44" meanTimeLoss="2.24" meanOccupancy="1.35" maxOccupancy="9.24" meanMaxJamLengthInVehicles="0.00" meanMaxJamLengthInMeters="0.00" maxJamLengthInVehicles="0" maxJamLengthInMeters="0.00" jamLengthInVehiclesSum="0" jamLengthInMetersSum="0.00" meanHaltingDuration="1.00" maxHaltingDuration="1.00" haltingDurationSum="1.00" meanIntervalHaltingDuration="1.00" maxIntervalHaltingDuration="1.00" intervalHaltingDurationSum="1.00" startedHalts="1.00" meanVehicleNumber="0.22" maxVehicleNumber="1" />
   <interval begin="25800.00" end="25900.00" id="e2_L30_1_0" sampledSeconds="176.45" nVehEntered="7" nVehLeft="8" nVehSeen="8" meanSpeed="0.75" meanTimeLoss="20.73" meanOccupancy="15.18" maxOccupancy="35.80" meanMaxJamLengthInVehicles="1.17" meanMaxJamLengthInMeters="6.90" maxJamLengthInVehicles="4" maxJamLengthInMeters="26.29" jamLengthInVehiclesSum="121" jamLengthInMetersSum="703.18" meanHaltingDuration="10.50" maxHaltingDuration="42.00" haltingDurationSum="126.00" meanIntervalHaltingDuration="10.50" maxIntervalHaltingDuration="42.00" intervalHaltingDurationSum="126.00" startedHalts="17.00" meanVehicleNumber="1.79" maxVehicleNumber="4" />
   <interval begin="25900.00" end="26000.00" id="e2_L30_1_0" sampledSeconds="28.76" nVehEntered="8" nVehLeft="6" nVehSeen="8" meanSpeed="3.45" meanTimeLoss="2.60" meanOccupancy="2.11" maxOccupancy="26.33" meanMaxJamLengthInVehicles="0.04" meanMaxJamLengthInMeters="0.15" maxJamLengthInVehicles="1" maxJamLengthInMeters="4.01" jamLengthInVehiclesSum="4" jamLengthInMetersSum="15.06" meanHaltingDuration="2.00" maxHaltingDuration="3.00" haltingDurationSum="8.00" meanIntervalHaltingDuration="2.00" maxIntervalHaltingDuration="3.00" intervalHaltingDurationSum="8.00" startedHalts="4.00" meanVehicleNumber="0.32" maxVehicleNumber="3" />