<?xml version="1.0" encoding="UTF-8"?>

<!-- generated on Sun Feb 17 15:57:00 2019 by 
<configuration xmlns:xsi="http://www.w3.org/2001/XMLSchema-instance" xsi:noNamespaceSchemaLocation="http://sumo.dlr.de/xsd/Configuration.xsd">

    <input>
        <net-file value="/home/sda/Documents/sumo-sathorn-ray/models/sathorn-morning/sathorn_w_fixed_20160404.net.xml"/>
        <route-files value="/home/sda/Documents/sumo-sathorn-ray/models/sathorn-morning/Great-route/sathorn_w_20160422edit2.rou.xml"/>
        <additional-files value="/home/sda/Documents/sumo-sathorn-ray/models/sathorn-morning/sathon_wide_tls_20160418_edited.add.xml,/home/sda/Documents/sumo-sathorn-ray/detectors/sathorn_w_detectors.add.xml"/>
    </input>

    <time>
        <begin value="21600"/>
        <end value="32400"/>
        <step-length value="1"/>
    </time>

    <processing>
        <no-internal-links value="true"/>
        <ignore-junction-blocker value="-1"/>
        <time-to-teleport value="-1"/>
        <eager-insert value="true"/>
        <time-to-impatience value="300"/>
    </processing>

    <report>
        <no-warnings value="true"/>
    </report>

    <random_number>
        <random value="false"/>
        <seed value="20"/>
    </random_number>

    <gui_only>
        <gui-settings-file value="/home/sda/Documents/sumo-sathorn-ray/gui-settings/gui-settings-file-surasak.xml"/>
        <quit-on-end value="true"/>
        <start value="true"/>
        <tracker-interval value="1"/>
    </gui_only>

</configuration>
-->

<detector xmlns:xsi="http://www.w3.org/2001/XMLSchema-instance" xsi:noNamespaceSchemaLocation="http://sumo.dlr.de/xsd/det_e2_file.xsd">
   <interval begin="21600.00" end="21700.00" id="e2_L570_2_3" sampledSeconds="0.00" nVehEntered="0" nVehLeft="0" nVehSeen="0" meanSpeed="-1.00" meanTimeLoss="-1.00" meanOccupancy="0.00" maxOccupancy="0.00" meanMaxJamLengthInVehicles="0.00" meanMaxJamLengthInMeters="0.00" maxJamLengthInVehicles="0" maxJamLengthInMeters="0.00" jamLengthInVehiclesSum="0" jamLengthInMetersSum="0.00" meanHaltingDuration="0.00" maxHaltingDuration="0.00" haltingDurationSum="0.00" meanIntervalHaltingDuration="0.00" maxIntervalHaltingDuration="0.00" intervalHaltingDurationSum="0.00" startedHalts="0.00" meanVehicleNumber="0.00" maxVehicleNumber="0" />
   <interval begin="21700.00" end="21800.00" id="e2_L570_2_3" sampledSeconds="0.00" nVehEntered="0" nVehLeft="0" nVehSeen="0" meanSpeed="-1.00" meanTimeLoss="-1.00" meanOccupancy="0.00" maxOccupancy="0.00" meanMaxJamLengthInVehicles="0.00" meanMaxJamLengthInMeters="0.00" maxJamLengthInVehicles="0" maxJamLengthInMeters="0.00" jamLengthInVehiclesSum="0" jamLengthInMetersSum="0.00" meanHaltingDuration="0.00" maxHaltingDuration="0.00" haltingDurationSum="0.00" meanIntervalHaltingDuration="0.00" maxIntervalHaltingDuration="0.00" intervalHaltingDurationSum="0.00" startedHalts="0.00" meanVehicleNumber="0.00" maxVehicleNumber="0" />
   <interval begin="21800.00" end="21900.00" id="e2_L570_2_3" sampledSeconds="0.00" nVehEntered="0" nVehLeft="0" nVehSeen="0" meanSpeed="-1.00" meanTimeLoss="-1.00" meanOccupancy="0.00" maxOccupancy="0.00" meanMaxJamLengthInVehicles="0.00" meanMaxJamLengthInMeters="0.00" maxJamLengthInVehicles="0" maxJamLengthInMeters="0.00" jamLengthInVehiclesSum="0" jamLengthInMetersSum="0.00" meanHaltingDuration="0.00" maxHaltingDuration="0.00" haltingDurationSum="0.00" meanIntervalHaltingDuration="0.00" maxIntervalHaltingDuration="0.00" intervalHaltingDurationSum="0.00" startedHalts="0.00" meanVehicleNumber="0.00" maxVehicleNumber="0" />
   <interval begin="21900.00" end="22000.00" id="e2_L570_2_3" sampledSeconds="0.00" nVehEntered="0" nVehLeft="0" nVehSeen="0" meanSpeed="-1.00" meanTimeLoss="-1.00" meanOccupancy="0.00" maxOccupancy="0.00" meanMaxJamLengthInVehicles="0.00" meanMaxJamLengthInMeters="0.00" maxJamLengthInVehicles="0" maxJamLengthInMeters="0.00" jamLengthInVehiclesSum="0" jamLengthInMetersSum="0.00" meanHaltingDuration="0.00" maxHaltingDuration="0.00" haltingDurationSum="0.00" meanIntervalHaltingDuration="0.00" maxIntervalHaltingDuration="0.00" intervalHaltingDurationSum="0.00" startedHalts="0.00" meanVehicleNumber="0.00" maxVehicleNumber="0" />
   <interval begin="22000.00" end="22100.00" id="e2_L570_2_3" sampledSeconds="0.00" nVehEntered="0" nVehLeft="0" nVehSeen="0" meanSpeed="-1.00" meanTimeLoss="-1.00" meanOccupancy="0.00" maxOccupancy="0.00" meanMaxJamLengthInVehicles="0.00" meanMaxJamLengthInMeters="0.00" maxJamLengthInVehicles="0" maxJamLengthInMeters="0.00" jamLengthInVehiclesSum="0" jamLengthInMetersSum="0.00" meanHaltingDuration="0.00" maxHaltingDuration="0.00" haltingDurationSum="0.00" meanIntervalHaltingDuration="0.00" maxIntervalHaltingDuration="0.00" intervalHaltingDurationSum="0.00" startedHalts="0.00" meanVehicleNumber="0.00" maxVehicleNumber="0" />
   <interval begin="22100.00" end="22200.00" id="e2_L570_2_3" sampledSeconds="0.00" nVehEntered="0" nVehLeft="0" nVehSeen="0" meanSpeed="-1.00" meanTimeLoss="-1.00" meanOccupancy="0.00" maxOccupancy="0.00" meanMaxJamLengthInVehicles="0.00" meanMaxJamLengthInMeters="0.00" maxJamLengthInVehicles="0" maxJamLengthInMeters="0.00" jamLengthInVehiclesSum="0" jamLengthInMetersSum="0.00" meanHaltingDuration="0.00" maxHaltingDuration="0.00" haltingDurationSum="0.00" meanIntervalHaltingDuration="0.00" maxIntervalHaltingDuration="0.00" intervalHaltingDurationSum="0.00" startedHalts="0.00" meanVehicleNumber="0.00" maxVehicleNumber="0" />
   <interval begin="22200.00" end="22300.00" id="e2_L570_2_3" sampledSeconds="0.00" nVehEntered="0" nVehLeft="0" nVehSeen="0" meanSpeed="-1.00" meanTimeLoss="-1.00" meanOccupancy="0.00" maxOccupancy="0.00" meanMaxJamLengthInVehicles="0.00" meanMaxJamLengthInMeters="0.00" maxJamLengthInVehicles="0" maxJamLengthInMeters="0.00" jamLengthInVehiclesSum="0" jamLengthInMetersSum="0.00" meanHaltingDuration="0.00" maxHaltingDuration="0.00" haltingDurationSum="0.00" meanIntervalHaltingDuration="0.00" maxIntervalHaltingDuration="0.00" intervalHaltingDurationSum="0.00" startedHalts="0.00" meanVehicleNumber="0.00" maxVehicleNumber="0" />
   <interval begin="22300.00" end="22400.00" id="e2_L570_2_3" sampledSeconds="0.00" nVehEntered="0" nVehLeft="0" nVehSeen="0" meanSpeed="-1.00" meanTimeLoss="-1.00" meanOccupancy="0.00" maxOccupancy="0.00" meanMaxJamLengthInVehicles="0.00" meanMaxJamLengthInMeters="0.00" maxJamLengthInVehicles="0" maxJamLengthInMeters="0.00" jamLengthInVehiclesSum="0" jamLengthInMetersSum="0.00" meanHaltingDuration="0.00" maxHaltingDuration="0.00" haltingDurationSum="0.00" meanIntervalHaltingDuration="0.00" maxIntervalHaltingDuration="0.00" intervalHaltingDurationSum="0.00" startedHalts="0.00" meanVehicleNumber="0.00" maxVehicleNumber="0" />
   <interval begin="22400.00" end="22500.00" id="e2_L570_2_3" sampledSeconds="0.00" nVehEntered="0" nVehLeft="0" nVehSeen="0" meanSpeed="-1.00" meanTimeLoss="-1.00" meanOccupancy="0.00" maxOccupancy="0.00" meanMaxJamLengthInVehicles="0.00" meanMaxJamLengthInMeters="0.00" maxJamLengthInVehicles="0" maxJamLengthInMeters="0.00" jamLengthInVehiclesSum="0" jamLengthInMetersSum="0.00" meanHaltingDuration="0.00" maxHaltingDuration="0.00" haltingDurationSum="0.00" meanIntervalHaltingDuration="0.00" maxIntervalHaltingDuration="0.00" intervalHaltingDurationSum="0.00" startedHalts="0.00" meanVehicleNumber="0.00" maxVehicleNumber="0" />
   <interval begin="22500.00" end="22600.00" id="e2_L570_2_3" sampledSeconds="0.00" nVehEntered="0" nVehLeft="0" nVehSeen="0" meanSpeed="-1.00" meanTimeLoss="-1.00" meanOccupancy="0.00" maxOccupancy="0.00" meanMaxJamLengthInVehicles="0.00" meanMaxJamLengthInMeters="0.00" maxJamLengthInVehicles="0" maxJamLengthInMeters="0.00" jamLengthInVehiclesSum="0" jamLengthInMetersSum="0.00" meanHaltingDuration="0.00" maxHaltingDuration="0.00" haltingDurationSum="0.00" meanIntervalHaltingDuration="0.00" maxIntervalHaltingDuration="0.00" intervalHaltingDurationSum="0.00" startedHalts="0.00" meanVehicleNumber="0.00" maxVehicleNumber="0" />
   <interval begin="22600.00" end="22700.00" id="e2_L570_2_3" sampledSeconds="0.00" nVehEntered="0" nVehLeft="0" nVehSeen="0" meanSpeed="-1.00" meanTimeLoss="-1.00" meanOccupancy="0.00" maxOccupancy="0.00" meanMaxJamLengthInVehicles="0.00" meanMaxJamLengthInMeters="0.00" maxJamLengthInVehicles="0" maxJamLengthInMeters="0.00" jamLengthInVehiclesSum="0" jamLengthInMetersSum="0.00" meanHaltingDuration="0.00" maxHaltingDuration="0.00" haltingDurationSum="0.00" meanIntervalHaltingDuration="0.00" maxIntervalHaltingDuration="0.00" intervalHaltingDurationSum="0.00" startedHalts="0.00" meanVehicleNumber="0.00" maxVehicleNumber="0" />
   <interval begin="22700.00" end="22800.00" id="e2_L570_2_3" sampledSeconds="12.02" nVehEntered="2" nVehLeft="2" nVehSeen="2" meanSpeed="11.65" meanTimeLoss="0.41" meanOccupancy="0.34" maxOccupancy="3.10" meanMaxJamLengthInVehicles="0.00" meanMaxJamLengthInMeters="0.00" maxJamLengthInVehicles="0" maxJamLengthInMeters="0.00" jamLengthInVehiclesSum="0" jamLengthInMetersSum="0.00" meanHaltingDuration="0.00" maxHaltingDuration="0.00" haltingDurationSum="0.00" meanIntervalHaltingDuration="0.00" maxIntervalHaltingDuration="0.00" intervalHaltingDurationSum="0.00" startedHalts="0.00" meanVehicleNumber="0.13" maxVehicleNumber="1" />
   <interval begin="22800.00" end="22900.00" id="e2_L570_2_3" sampledSeconds="15.46" nVehEntered="3" nVehLeft="3" nVehSeen="3" meanSpeed="11.47" meanTimeLoss="0.43" meanOccupancy="0.41" maxOccupancy="3.10" meanMaxJamLengthInVehicles="0.00" meanMaxJamLengthInMeters="0.00" maxJamLengthInVehicles="0" maxJamLengthInMeters="0.00" jamLengthInVehiclesSum="0" jamLengthInMetersSum="0.00" meanHaltingDuration="0.00" maxHaltingDuration="0.00" haltingDurationSum="0.00" meanIntervalHaltingDuration="0.00" maxIntervalHaltingDuration="0.00" intervalHaltingDurationSum="0.00" startedHalts="0.00" meanVehicleNumber="0.17" maxVehicleNumber="1" />
   <interval begin="22900.00" end="23000.00" id="e2_L570_2_3" sampledSeconds="147.27" nVehEntered="4" nVehLeft="1" nVehSeen="4" meanSpeed="1.34" meanTimeLoss="32.86" meanOccupancy="4.43" maxOccupancy="12.40" meanMaxJamLengthInVehicles="0.84" meanMaxJamLengthInMeters="6.22" maxJamLengthInVehicles="4" maxJamLengthInMeters="37.86" jamLengthInVehiclesSum="89" jamLengthInMetersSum="645.52" meanHaltingDuration="6.56" maxHaltingDuration="30.00" haltingDurationSum="105.00" meanIntervalHaltingDuration="6.56" maxIntervalHaltingDuration="30.00" intervalHaltingDurationSum="105.00" startedHalts="16.00" meanVehicleNumber="1.48" maxVehicleNumber="4" />
   <interval begin="23000.00" end="23100.00" id="e2_L570_2_3" sampledSeconds="397.00" nVehEntered="4" nVehLeft="0" nVehSeen="7" meanSpeed="0.34" meanTimeLoss="55.15" meanOccupancy="9.79" maxOccupancy="19.13" meanMaxJamLengthInVehicles="3.74" meanMaxJamLengthInMeters="30.95" maxJamLengthInVehicles="7" maxJamLengthInMeters="53.96" jamLengthInVehiclesSum="374" jamLengthInMetersSum="3095.16" meanHaltingDuration="55.28" maxHaltingDuration="106.00" haltingDurationSum="387.00" meanIntervalHaltingDuration="54.00" maxIntervalHaltingDuration="100.00" intervalHaltingDurationSum="378.00" startedHalts="4.00" meanVehicleNumber="3.97" maxVehicleNumber="7" />
   <interval begin="23100.00" end="23200.00" id="e2_L570_2_3" sampledSeconds="1152.00" nVehEntered="7" nVehLeft="0" nVehSeen="14" meanSpeed="0.15" meanTimeLoss="81.25" meanOccupancy="33.15" maxOccupancy="40.84" meanMaxJamLengthInVehicles="11.06" meanMaxJamLengthInMeters="94.98" maxJamLengthInVehicles="14" maxJamLengthInMeters="130.55" jamLengthInVehiclesSum="1108" jamLengthInMetersSum="9506.79" meanHaltingDuration="88.53" maxHaltingDuration="206.00" haltingDurationSum="1505.00" meanIntervalHaltingDuration="65.76" maxIntervalHaltingDuration="100.00" intervalHaltingDurationSum="1118.00" startedHalts="10.00" meanVehicleNumber="11.52" maxVehicleNumber="14" />
   <interval begin="23200.00" end="23300.00" id="e2_L570_2_3" sampledSeconds="1403.00" nVehEntered="2" nVehLeft="1" nVehSeen="16" meanSpeed="0.01" meanTimeLoss="87.64" meanOccupancy="40.94" maxOccupancy="43.94" meanMaxJamLengthInVehicles="13.98" meanMaxJamLengthInMeters="132.92" maxJamLengthInVehicles="15" maxJamLengthInMeters="151.52" jamLengthInVehiclesSum="1398" jamLengthInMetersSum="13291.70" meanHaltingDuration="191.13" maxHaltingDuration="306.00" haltingDurationSum="2867.00" meanIntervalHaltingDuration="92.13" maxIntervalHaltingDuration="100.00" intervalHaltingDurationSum="1382.00" startedHalts="2.00" meanVehicleNumber="14.03" maxVehicleNumber="15" />
   <interval begin="23300.00" end="23400.00" id="e2_L570_2_3" sampledSeconds="1500.00" nVehEntered="0" nVehLeft="0" nVehSeen="15" meanSpeed="0.00" meanTimeLoss="100.00" meanOccupancy="43.94" maxOccupancy="43.94" meanMaxJamLengthInVehicles="15.00" meanMaxJamLengthInMeters="151.51" maxJamLengthInVehicles="15" maxJamLengthInMeters="151.51" jamLengthInVehiclesSum="1500" jamLengthInMetersSum="15151.22" meanHaltingDuration="291.13" maxHaltingDuration="406.00" haltingDurationSum="4367.00" meanIntervalHaltingDuration="100.00" maxIntervalHaltingDuration="100.00" intervalHaltingDurationSum="1500.00" startedHalts="0.00" meanVehicleNumber="15.00" maxVehicleNumber="15" />
   <interval begin="23400.00" end="23500.00" id="e2_L570_2_3" sampledSeconds="1433.90" nVehEntered="0" nVehLeft="1" nVehSeen="15" meanSpeed="0.00" meanTimeLoss="95.59" meanOccupancy="43.57" maxOccupancy="43.94" meanMaxJamLengthInVehicles="14.34" meanMaxJamLengthInMeters="142.27" maxJamLengthInVehicles="15" maxJamLengthInMeters="152.30" jamLengthInVehiclesSum="1434" jamLengthInMetersSum="14227.14" meanHaltingDuration="382.93" maxHaltingDuration="502.00" haltingDurationSum="5361.00" meanIntervalHaltingDuration="100.00" maxIntervalHaltingDuration="100.00" intervalHaltingDurationSum="1400.00" startedHalts="0.00" meanVehicleNumber="14.34" maxVehicleNumber="15" />
   <interval begin="23500.00" end="23600.00" id="e2_L570_2_3" sampledSeconds="1400.00" nVehEntered="0" nVehLeft="0" nVehSeen="14" meanSpeed="0.00" meanTimeLoss="100.00" meanOccupancy="43.42" maxOccupancy="43.42" meanMaxJamLengthInVehicles="14.00" meanMaxJamLengthInMeters="137.45" maxJamLengthInVehicles="14" maxJamLengthInMeters="137.45" jamLengthInVehiclesSum="1400" jamLengthInMetersSum="13745.01" meanHaltingDuration="482.93" maxHaltingDuration="602.00" haltingDurationSum="6761.00" meanIntervalHaltingDuration="100.00" maxIntervalHaltingDuration="100.00" intervalHaltingDurationSum="1400.00" startedHalts="0.00" meanVehicleNumber="14.00" maxVehicleNumber="14" />
   <interval begin="23600.00" end="23700.00" id="e2_L570_2_3" sampledSeconds="1400.00" nVehEntered="0" nVehLeft="0" nVehSeen="14" meanSpeed="0.00" meanTimeLoss="100.00" meanOccupancy="43.42" maxOccupancy="43.42" meanMaxJamLengthInVehicles="14.00" meanMaxJamLengthInMeters="137.45" maxJamLengthInVehicles="14" maxJamLengthInMeters="137.45" jamLengthInVehiclesSum="1400" jamLengthInMetersSum="13745.01" meanHaltingDuration="582.93" maxHaltingDuration="702.00" haltingDurationSum="8161.00" meanIntervalHaltingDuration="100.00" maxIntervalHaltingDuration="100.00" intervalHaltingDurationSum="1400.00" startedHalts="0.00" meanVehicleNumber="14.00" maxVehicleNumber="14" />
   <interval begin="23700.00" end="23800.00" id="e2_L570_2_3" sampledSeconds="1400.00" nVehEntered="0" nVehLeft="0" nVehSeen="14" meanSpeed="0.00" meanTimeLoss="100.00" meanOccupancy="43.42" maxOccupancy="43.42" meanMaxJamLengthInVehicles="14.00" meanMaxJamLengthInMeters="137.45" maxJamLengthInVehicles="14" maxJamLengthInMeters="137.45" jamLengthInVehiclesSum="1400" jamLengthInMetersSum="13745.01" meanHaltingDuration="682.93" maxHaltingDuration="802.00" haltingDurationSum="9561.00" meanIntervalHaltingDuration="100.00" maxIntervalHaltingDuration="100.00" intervalHaltingDurationSum="1400.00" startedHalts="0.00" meanVehicleNumber="14.00" maxVehicleNumber="14" />
   <interval begin="23800.00" end="23900.00" id="e2_L570_2_3" sampledSeconds="1400.00" nVehEntered="0" nVehLeft="0" nVehSeen="14" meanSpeed="0.00" meanTimeLoss="100.00" meanOccupancy="43.42" maxOccupancy="43.42" meanMaxJamLengthInVehicles="14.00" meanMaxJamLengthInMeters="137.45" maxJamLengthInVehicles="14" maxJamLengthInMeters="137.45" jamLengthInVehiclesSum="1400" jamLengthInMetersSum="13745.01" meanHaltingDuration="782.93" maxHaltingDuration="902.00" haltingDurationSum="10961.00" meanIntervalHaltingDuration="100.00" maxIntervalHaltingDuration="100.00" intervalHaltingDurationSum="1400.00" startedHalts="0.00" meanVehicleNumber="14.00" maxVehicleNumber="14" />
   <interval begin="23900.00" end="24000.00" id="e2_L570_2_3" sampledSeconds="1400.00" nVehEntered="0" nVehLeft="0" nVehSeen="14" meanSpeed="0.00" meanTimeLoss="100.00" meanOccupancy="43.42" maxOccupancy="43.42" meanMaxJamLengthInVehicles="14.00" meanMaxJamLengthInMeters="137.45" maxJamLengthInVehicles="14" maxJamLengthInMeters="137.45" jamLengthInVehiclesSum="1400" jamLengthInMetersSum="13745.01" meanHaltingDuration="882.93" maxHaltingDuration="1002.00" haltingDurationSum="12361.00" meanIntervalHaltingDuration="100.00" maxIntervalHaltingDuration="100.00" intervalHaltingDurationSum="1400.00" startedHalts="0.00" meanVehicleNumber="14.00" maxVehicleNumber="14" />
   <interval begin="24000.00" end="24100.00" id="e2_L570_2_3" sampledSeconds="1400.00" nVehEntered="0" nVehLeft="0" nVehSeen="14" meanSpeed="0.00" meanTimeLoss="100.00" meanOccupancy="43.42" maxOccupancy="43.42" meanMaxJamLengthInVehicles="14.00" meanMaxJamLengthInMeters="137.45" maxJamLengthInVehicles="14" maxJamLengthInMeters="137.45" jamLengthInVehiclesSum="1400" jamLengthInMetersSum="13745.01" meanHaltingDuration="982.93" maxHaltingDuration="1102.00" haltingDurationSum="13761.00" meanIntervalHaltingDuration="100.00" maxIntervalHaltingDuration="100.00" intervalHaltingDurationSum="1400.00" startedHalts="0.00" meanVehicleNumber="14.00" maxVehicleNumber="14" />
   <interval begin="24100.00" end="24200.00" id="e2_L570_2_3" sampledSeconds="1400.00" nVehEntered="0" nVehLeft="0" nVehSeen="14" meanSpeed="0.00" meanTimeLoss="100.00" meanOccupancy="43.42" maxOccupancy="43.42" meanMaxJamLengthInVehicles="14.00" meanMaxJamLengthInMeters="137.45" maxJamLengthInVehicles="14" maxJamLengthInMeters="137.45" jamLengthInVehiclesSum="1400" jamLengthInMetersSum="13745.01" meanHaltingDuration="1082.93" maxHaltingDuration="1202.00" haltingDurationSum="15161.00" meanIntervalHaltingDuration="100.00" maxIntervalHaltingDuration="100.00" intervalHaltingDurationSum="1400.00" startedHalts="0.00" meanVehicleNumber="14.00" maxVehicleNumber="14" />
   <interval begin="24200.00" end="24300.00" id="e2_L570_2_3" sampledSeconds="1400.00" nVehEntered="0" nVehLeft="0" nVehSeen="14" meanSpeed="0.00" meanTimeLoss="100.00" meanOccupancy="43.42" maxOccupancy="43.42" meanMaxJamLengthInVehicles="14.00" meanMaxJamLengthInMeters="137.45" maxJamLengthInVehicles="14" maxJamLengthInMeters="137.45" jamLengthInVehiclesSum="1400" jamLengthInMetersSum="13744.99" meanHaltingDuration="1182.93" maxHaltingDuration="1302.00" haltingDurationSum="16561.00" meanIntervalHaltingDuration="100.00" maxIntervalHaltingDuration="100.00" intervalHaltingDurationSum="1400.00" startedHalts="0.00" meanVehicleNumber="14.00" maxVehicleNumber="14" />
   <interval begin="24300.00" end="24400.00" id="e2_L570_2_3" sampledSeconds="1400.00" nVehEntered="0" nVehLeft="0" nVehSeen="14" meanSpeed="0.00" meanTimeLoss="100.00" meanOccupancy="43.42" maxOccupancy="43.42" meanMaxJamLengthInVehicles="14.00" meanMaxJamLengthInMeters="137.45" maxJamLengthInVehicles="14" maxJamLengthInMeters="137.45" jamLengthInVehiclesSum="1400" jamLengthInMetersSum="13744.98" meanHaltingDuration="1282.93" maxHaltingDuration="1402.00" haltingDurationSum="17961.00" meanIntervalHaltingDuration="100.00" maxIntervalHaltingDuration="100.00" intervalHaltingDurationSum="1400.00" startedHalts="0.00" meanVehicleNumber="14.00" maxVehicleNumber="14" />
   <interval begin="24400.00" end="24500.00" id="e2_L570_2_3" sampledSeconds="1400.00" nVehEntered="0" nVehLeft="0" nVehSeen="14" meanSpeed="0.00" meanTimeLoss="100.00" meanOccupancy="43.42" maxOccupancy="43.42" meanMaxJamLengthInVehicles="14.00" meanMaxJamLengthInMeters="137.45" maxJamLengthInVehicles="14" maxJamLengthInMeters="137.45" jamLengthInVehiclesSum="1400" jamLengthInMetersSum="13744.98" meanHaltingDuration="1382.93" maxHaltingDuration="1502.00" haltingDurationSum="19361.00" meanIntervalHaltingDuration="100.00" maxIntervalHaltingDuration="100.00" intervalHaltingDurationSum="1400.00" startedHalts="0.00" meanVehicleNumber="14.00" maxVehicleNumber="14" />
   <interval begin="24500.00" end="24600.00" id="e2_L570_2_3" sampledSeconds="1582.00" nVehEntered="5" nVehLeft="0" nVehSeen="19" meanSpeed="0.19" meanTimeLoss="82.02" meanOccupancy="47.05" maxOccupancy="56.35" meanMaxJamLengthInVehicles="13.80" meanMaxJamLengthInMeters="114.35" maxJamLengthInVehicles="19" maxJamLengthInMeters="151.11" jamLengthInVehiclesSum="1473" jamLengthInMetersSum="12124.91" meanHaltingDuration="595.86" maxHaltingDuration="1521.00" haltingDurationSum="20855.00" meanIntervalHaltingDuration="42.69" maxIntervalHaltingDuration="77.00" intervalHaltingDurationSum="1494.00" startedHalts="21.00" meanVehicleNumber="15.82" maxVehicleNumber="19" />
   <interval begin="24600.00" end="24700.00" id="e2_L570_2_3" sampledSeconds="1982.00" nVehEntered="1" nVehLeft="0" nVehSeen="20" meanSpeed="0.00" meanTimeLoss="99.09" meanOccupancy="58.89" maxOccupancy="59.45" meanMaxJamLengthInVehicles="19.81" meanMaxJamLengthInMeters="150.11" maxJamLengthInVehicles="20" maxJamLengthInMeters="151.49" jamLengthInVehiclesSum="1981" jamLengthInMetersSum="15010.54" meanHaltingDuration="150.90" maxHaltingDuration="177.00" haltingDurationSum="3018.00" meanIntervalHaltingDuration="99.10" maxIntervalHaltingDuration="100.00" intervalHaltingDurationSum="1982.00" startedHalts="1.00" meanVehicleNumber="19.82" maxVehicleNumber="20" />
   <interval begin="24700.00" end="24800.00" id="e2_L570_2_3" sampledSeconds="2000.00" nVehEntered="0" nVehLeft="0" nVehSeen="20" meanSpeed="0.00" meanTimeLoss="100.00" meanOccupancy="59.45" maxOccupancy="59.45" meanMaxJamLengthInVehicles="20.00" meanMaxJamLengthInMeters="151.43" maxJamLengthInVehicles="20" maxJamLengthInMeters="151.43" jamLengthInVehiclesSum="2000" jamLengthInMetersSum="15143.15" meanHaltingDuration="250.90" maxHaltingDuration="277.00" haltingDurationSum="5018.00" meanIntervalHaltingDuration="100.00" maxIntervalHaltingDuration="100.00" intervalHaltingDurationSum="2000.00" startedHalts="0.00" meanVehicleNumber="20.00" maxVehicleNumber="20" />
   <interval begin="24800.00" end="24900.00" id="e2_L570_2_3" sampledSeconds="1981.12" nVehEntered="0" nVehLeft="1" nVehSeen="20" meanSpeed="0.02" meanTimeLoss="98.90" meanOccupancy="59.26" maxOccupancy="59.45" meanMaxJamLengthInVehicles="19.82" meanMaxJamLengthInMeters="150.77" maxJamLengthInVehicles="20" maxJamLengthInMeters="152.48" jamLengthInVehiclesSum="1982" jamLengthInMetersSum="15077.46" meanHaltingDuration="349.53" maxHaltingDuration="375.00" haltingDurationSum="6641.00" meanIntervalHaltingDuration="100.00" maxIntervalHaltingDuration="100.00" intervalHaltingDurationSum="1900.00" startedHalts="0.00" meanVehicleNumber="19.82" maxVehicleNumber="20" />
   <interval begin="24900.00" end="25000.00" id="e2_L570_2_3" sampledSeconds="1900.00" nVehEntered="0" nVehLeft="0" nVehSeen="19" meanSpeed="0.06" meanTimeLoss="99.55" meanOccupancy="56.14" maxOccupancy="57.60" meanMaxJamLengthInVehicles="19.00" meanMaxJamLengthInMeters="146.22" maxJamLengthInVehicles="19" maxJamLengthInMeters="149.65" jamLengthInVehiclesSum="1900" jamLengthInMetersSum="14621.78" meanHaltingDuration="449.53" maxHaltingDuration="475.00" haltingDurationSum="8541.00" meanIntervalHaltingDuration="100.00" maxIntervalHaltingDuration="100.00" intervalHaltingDurationSum="1900.00" startedHalts="0.00" meanVehicleNumber="19.00" maxVehicleNumber="19" />
   <interval begin="25000.00" end="25100.00" id="e2_L570_2_3" sampledSeconds="1900.00" nVehEntered="0" nVehLeft="0" nVehSeen="19" meanSpeed="0.00" meanTimeLoss="100.00" meanOccupancy="55.87" maxOccupancy="55.87" meanMaxJamLengthInVehicles="19.00" meanMaxJamLengthInMeters="144.44" maxJamLengthInVehicles="19" maxJamLengthInMeters="144.44" jamLengthInVehiclesSum="1900" jamLengthInMetersSum="14444.07" meanHaltingDuration="549.53" maxHaltingDuration="575.00" haltingDurationSum="10441.00" meanIntervalHaltingDuration="100.00" maxIntervalHaltingDuration="100.00" intervalHaltingDurationSum="1900.00" startedHalts="0.00" meanVehicleNumber="19.00" maxVehicleNumber="19" />
   <interval begin="25100.00" end="25200.00" id="e2_L570_2_3" sampledSeconds="1900.00" nVehEntered="0" nVehLeft="0" nVehSeen="19" meanSpeed="0.00" meanTimeLoss="100.00" meanOccupancy="55.87" maxOccupancy="55.87" meanMaxJamLengthInVehicles="19.00" meanMaxJamLengthInMeters="144.44" maxJamLengthInVehicles="19" maxJamLengthInMeters="144.44" jamLengthInVehiclesSum="1900" jamLengthInMetersSum="14444.06" meanHaltingDuration="649.53" maxHaltingDuration="675.00" haltingDurationSum="12341.00" meanIntervalHaltingDuration="100.00" maxIntervalHaltingDuration="100.00" intervalHaltingDurationSum="1900.00" startedHalts="0.00" meanVehicleNumber="19.00" maxVehicleNumber="19" />
   <interval begin="25200.00" end="25300.00" id="e2_L570_2_3" sampledSeconds="1854.58" nVehEntered="0" nVehLeft="1" nVehSeen="19" meanSpeed="0.04" meanTimeLoss="97.29" meanOccupancy="55.49" maxOccupancy="55.87" meanMaxJamLengthInVehicles="18.55" meanMaxJamLengthInMeters="142.52" maxJamLengthInVehicles="19" maxJamLengthInMeters="144.52" jamLengthInVehiclesSum="1855" jamLengthInMetersSum="14251.85" meanHaltingDuration="748.11" maxHaltingDuration="773.00" haltingDurationSum="13466.00" meanIntervalHaltingDuration="100.00" maxIntervalHaltingDuration="100.00" intervalHaltingDurationSum="1800.00" startedHalts="0.00" meanVehicleNumber="18.55" maxVehicleNumber="19" />
   <interval begin="25300.00" end="25400.00" id="e2_L570_2_3" sampledSeconds="1800.00" nVehEntered="0" nVehLeft="0" nVehSeen="18" meanSpeed="0.01" meanTimeLoss="99.96" meanOccupancy="54.31" maxOccupancy="54.31" meanMaxJamLengthInVehicles="18.00" meanMaxJamLengthInMeters="137.58" maxJamLengthInVehicles="18" maxJamLengthInMeters="139.37" jamLengthInVehiclesSum="1800" jamLengthInMetersSum="13758.30" meanHaltingDuration="848.11" maxHaltingDuration="873.00" haltingDurationSum="15266.00" meanIntervalHaltingDuration="100.00" maxIntervalHaltingDuration="100.00" intervalHaltingDurationSum="1800.00" startedHalts="0.00" meanVehicleNumber="18.00" maxVehicleNumber="18" />
   <interval begin="25400.00" end="25500.00" id="e2_L570_2_3" sampledSeconds="1800.00" nVehEntered="0" nVehLeft="0" nVehSeen="18" meanSpeed="0.00" meanTimeLoss="100.00" meanOccupancy="54.31" maxOccupancy="54.31" meanMaxJamLengthInVehicles="18.00" meanMaxJamLengthInMeters="137.45" maxJamLengthInVehicles="18" maxJamLengthInMeters="137.45" jamLengthInVehiclesSum="1800" jamLengthInMetersSum="13744.97" meanHaltingDuration="948.11" maxHaltingDuration="973.00" haltingDurationSum="17066.00" meanIntervalHaltingDuration="100.00" maxIntervalHaltingDuration="100.00" intervalHaltingDurationSum="1800.00" startedHalts="0.00" meanVehicleNumber="18.00" maxVehicleNumber="18" />
   <interval begin="25500.00" end="25600.00" id="e2_L570_2_3" sampledSeconds="1800.00" nVehEntered="0" nVehLeft="0" nVehSeen="18" meanSpeed="0.00" meanTimeLoss="100.00" meanOccupancy="54.31" maxOccupancy="54.31" meanMaxJamLengthInVehicles="18.00" meanMaxJamLengthInMeters="137.45" maxJamLengthInVehicles="18" maxJamLengthInMeters="137.45" jamLengthInVehiclesSum="1800" jamLengthInMetersSum="13744.97" meanHaltingDuration="1048.11" maxHaltingDuration="1073.00" haltingDurationSum="18866.00" meanIntervalHaltingDuration="100.00" maxIntervalHaltingDuration="100.00" intervalHaltingDurationSum="1800.00" startedHalts="0.00" meanVehicleNumber="18.00" maxVehicleNumber="18" />
   <interval begin="25600.00" end="25700.00" id="e2_L570_2_3" sampledSeconds="1800.00" nVehEntered="0" nVehLeft="0" nVehSeen="18" meanSpeed="0.00" meanTimeLoss="100.00" meanOccupancy="54.31" maxOccupancy="54.31" meanMaxJamLengthInVehicles="18.00" meanMaxJamLengthInMeters="137.45" maxJamLengthInVehicles="18" maxJamLengthInMeters="137.45" jamLengthInVehiclesSum="1800" jamLengthInMetersSum="13744.97" meanHaltingDuration="1148.11" maxHaltingDuration="1173.00" haltingDurationSum="20666.00" meanIntervalHaltingDuration="100.00" maxIntervalHaltingDuration="100.00" intervalHaltingDurationSum="1800.00" startedHalts="0.00" meanVehicleNumber="18.00" maxVehicleNumber="18" />
   <interval begin="25700.00" end="25800.00" id="e2_L570_2_3" sampledSeconds="1800.00" nVehEntered="0" nVehLeft="0" nVehSeen="18" meanSpeed="0.00" meanTimeLoss="100.00" meanOccupancy="54.31" maxOccupancy="54.31" meanMaxJamLengthInVehicles="18.00" meanMaxJamLengthInMeters="137.45" maxJamLengthInVehicles="18" maxJamLengthInMeters="137.45" jamLengthInVehiclesSum="1800" jamLengthInMetersSum="13744.97" meanHaltingDuration="1248.11" maxHaltingDuration="1273.00" haltingDurationSum="22466.00" meanIntervalHaltingDuration="100.00" maxIntervalHaltingDuration="100.00" intervalHaltingDurationSum="1800.00" startedHalts="0.00" meanVehicleNumber="18.00" maxVehicleNumber="18" />
   <interval begin="25800.00" end="25900.00" id="e2_L570_2_3" sampledSeconds="1800.00" nVehEntered="0" nVehLeft="0" nVehSeen="18" meanSpeed="0.00" meanTimeLoss="100.00" meanOccupancy="54.31" maxOccupancy="54.31" meanMaxJamLengthInVehicles="18.00" meanMaxJamLengthInMeters="137.45" maxJamLengthInVehicles="18" maxJamLengthInMeters="137.45" jamLengthInVehiclesSum="1800" jamLengthInMetersSum="13744.97" meanHaltingDuration="1348.11" maxHaltingDuration="1373.00" haltingDurationSum="24266.00" meanIntervalHaltingDuration="100.00" maxIntervalHaltingDuration="100.00" intervalHaltingDurationSum="1800.00" startedHalts="0.00" meanVehicleNumber="18.00" maxVehicleNumber="18" />