<?xml version="1.0" encoding="UTF-8"?>

<!-- generated on Sun Feb 17 15:57:00 2019 by 
<configuration xmlns:xsi="http://www.w3.org/2001/XMLSchema-instance" xsi:noNamespaceSchemaLocation="http://sumo.dlr.de/xsd/Configuration.xsd">

    <input>
        <net-file value="/home/sda/Documents/sumo-sathorn-ray/models/sathorn-morning/sathorn_w_fixed_20160404.net.xml"/>
        <route-files value="/home/sda/Documents/sumo-sathorn-ray/models/sathorn-morning/Great-route/sathorn_w_20160422edit2.rou.xml"/>
        <additional-files value="/home/sda/Documents/sumo-sathorn-ray/models/sathorn-morning/sathon_wide_tls_20160418_edited.add.xml,/home/sda/Documents/sumo-sathorn-ray/detectors/sathorn_w_detectors.add.xml"/>
    </input>

    <time>
        <begin value="21600"/>
        <end value="32400"/>
        <step-length value="1"/>
    </time>

    <processing>
        <no-internal-links value="true"/>
        <ignore-junction-blocker value="-1"/>
        <time-to-teleport value="-1"/>
        <eager-insert value="true"/>
        <time-to-impatience value="300"/>
    </processing>

    <report>
        <no-warnings value="true"/>
    </report>

    <random_number>
        <random value="false"/>
        <seed value="20"/>
    </random_number>

    <gui_only>
        <gui-settings-file value="/home/sda/Documents/sumo-sathorn-ray/gui-settings/gui-settings-file-surasak.xml"/>
        <quit-on-end value="true"/>
        <start value="true"/>
        <tracker-interval value="1"/>
    </gui_only>

</configuration>
-->

<detector xmlns:xsi="http://www.w3.org/2001/XMLSchema-instance" xsi:noNamespaceSchemaLocation="http://sumo.dlr.de/xsd/det_e2_file.xsd">
   <interval begin="21600.00" end="21700.00" id="e2_L40404_3_4" sampledSeconds="0.00" nVehEntered="0" nVehLeft="0" nVehSeen="0" meanSpeed="-1.00" meanTimeLoss="-1.00" meanOccupancy="0.00" maxOccupancy="0.00" meanMaxJamLengthInVehicles="0.00" meanMaxJamLengthInMeters="0.00" maxJamLengthInVehicles="0" maxJamLengthInMeters="0.00" jamLengthInVehiclesSum="0" jamLengthInMetersSum="0.00" meanHaltingDuration="0.00" maxHaltingDuration="0.00" haltingDurationSum="0.00" meanIntervalHaltingDuration="0.00" maxIntervalHaltingDuration="0.00" intervalHaltingDurationSum="0.00" startedHalts="0.00" meanVehicleNumber="0.00" maxVehicleNumber="0" />
   <interval begin="21700.00" end="21800.00" id="e2_L40404_3_4" sampledSeconds="0.00" nVehEntered="0" nVehLeft="0" nVehSeen="0" meanSpeed="-1.00" meanTimeLoss="-1.00" meanOccupancy="0.00" maxOccupancy="0.00" meanMaxJamLengthInVehicles="0.00" meanMaxJamLengthInMeters="0.00" maxJamLengthInVehicles="0" maxJamLengthInMeters="0.00" jamLengthInVehiclesSum="0" jamLengthInMetersSum="0.00" meanHaltingDuration="0.00" maxHaltingDuration="0.00" haltingDurationSum="0.00" meanIntervalHaltingDuration="0.00" maxIntervalHaltingDuration="0.00" intervalHaltingDurationSum="0.00" startedHalts="0.00" meanVehicleNumber="0.00" maxVehicleNumber="0" />
   <interval begin="21800.00" end="21900.00" id="e2_L40404_3_4" sampledSeconds="0.00" nVehEntered="0" nVehLeft="0" nVehSeen="0" meanSpeed="-1.00" meanTimeLoss="-1.00" meanOccupancy="0.00" maxOccupancy="0.00" meanMaxJamLengthInVehicles="0.00" meanMaxJamLengthInMeters="0.00" maxJamLengthInVehicles="0" maxJamLengthInMeters="0.00" jamLengthInVehiclesSum="0" jamLengthInMetersSum="0.00" meanHaltingDuration="0.00" maxHaltingDuration="0.00" haltingDurationSum="0.00" meanIntervalHaltingDuration="0.00" maxIntervalHaltingDuration="0.00" intervalHaltingDurationSum="0.00" startedHalts="0.00" meanVehicleNumber="0.00" maxVehicleNumber="0" />
   <interval begin="21900.00" end="22000.00" id="e2_L40404_3_4" sampledSeconds="0.00" nVehEntered="0" nVehLeft="0" nVehSeen="0" meanSpeed="-1.00" meanTimeLoss="-1.00" meanOccupancy="0.00" maxOccupancy="0.00" meanMaxJamLengthInVehicles="0.00" meanMaxJamLengthInMeters="0.00" maxJamLengthInVehicles="0" maxJamLengthInMeters="0.00" jamLengthInVehiclesSum="0" jamLengthInMetersSum="0.00" meanHaltingDuration="0.00" maxHaltingDuration="0.00" haltingDurationSum="0.00" meanIntervalHaltingDuration="0.00" maxIntervalHaltingDuration="0.00" intervalHaltingDurationSum="0.00" startedHalts="0.00" meanVehicleNumber="0.00" maxVehicleNumber="0" />
   <interval begin="22000.00" end="22100.00" id="e2_L40404_3_4" sampledSeconds="0.00" nVehEntered="0" nVehLeft="0" nVehSeen="0" meanSpeed="-1.00" meanTimeLoss="-1.00" meanOccupancy="0.00" maxOccupancy="0.00" meanMaxJamLengthInVehicles="0.00" meanMaxJamLengthInMeters="0.00" maxJamLengthInVehicles="0" maxJamLengthInMeters="0.00" jamLengthInVehiclesSum="0" jamLengthInMetersSum="0.00" meanHaltingDuration="0.00" maxHaltingDuration="0.00" haltingDurationSum="0.00" meanIntervalHaltingDuration="0.00" maxIntervalHaltingDuration="0.00" intervalHaltingDurationSum="0.00" startedHalts="0.00" meanVehicleNumber="0.00" maxVehicleNumber="0" />
   <interval begin="22100.00" end="22200.00" id="e2_L40404_3_4" sampledSeconds="0.00" nVehEntered="0" nVehLeft="0" nVehSeen="0" meanSpeed="-1.00" meanTimeLoss="-1.00" meanOccupancy="0.00" maxOccupancy="0.00" meanMaxJamLengthInVehicles="0.00" meanMaxJamLengthInMeters="0.00" maxJamLengthInVehicles="0" maxJamLengthInMeters="0.00" jamLengthInVehiclesSum="0" jamLengthInMetersSum="0.00" meanHaltingDuration="0.00" maxHaltingDuration="0.00" haltingDurationSum="0.00" meanIntervalHaltingDuration="0.00" maxIntervalHaltingDuration="0.00" intervalHaltingDurationSum="0.00" startedHalts="0.00" meanVehicleNumber="0.00" maxVehicleNumber="0" />
   <interval begin="22200.00" end="22300.00" id="e2_L40404_3_4" sampledSeconds="0.00" nVehEntered="0" nVehLeft="0" nVehSeen="0" meanSpeed="-1.00" meanTimeLoss="-1.00" meanOccupancy="0.00" maxOccupancy="0.00" meanMaxJamLengthInVehicles="0.00" meanMaxJamLengthInMeters="0.00" maxJamLengthInVehicles="0" maxJamLengthInMeters="0.00" jamLengthInVehiclesSum="0" jamLengthInMetersSum="0.00" meanHaltingDuration="0.00" maxHaltingDuration="0.00" haltingDurationSum="0.00" meanIntervalHaltingDuration="0.00" maxIntervalHaltingDuration="0.00" intervalHaltingDurationSum="0.00" startedHalts="0.00" meanVehicleNumber="0.00" maxVehicleNumber="0" />
   <interval begin="22300.00" end="22400.00" id="e2_L40404_3_4" sampledSeconds="0.00" nVehEntered="0" nVehLeft="0" nVehSeen="0" meanSpeed="-1.00" meanTimeLoss="-1.00" meanOccupancy="0.00" maxOccupancy="0.00" meanMaxJamLengthInVehicles="0.00" meanMaxJamLengthInMeters="0.00" maxJamLengthInVehicles="0" maxJamLengthInMeters="0.00" jamLengthInVehiclesSum="0" jamLengthInMetersSum="0.00" meanHaltingDuration="0.00" maxHaltingDuration="0.00" haltingDurationSum="0.00" meanIntervalHaltingDuration="0.00" maxIntervalHaltingDuration="0.00" intervalHaltingDurationSum="0.00" startedHalts="0.00" meanVehicleNumber="0.00" maxVehicleNumber="0" />
   <interval begin="22400.00" end="22500.00" id="e2_L40404_3_4" sampledSeconds="0.00" nVehEntered="0" nVehLeft="0" nVehSeen="0" meanSpeed="-1.00" meanTimeLoss="-1.00" meanOccupancy="0.00" maxOccupancy="0.00" meanMaxJamLengthInVehicles="0.00" meanMaxJamLengthInMeters="0.00" maxJamLengthInVehicles="0" maxJamLengthInMeters="0.00" jamLengthInVehiclesSum="0" jamLengthInMetersSum="0.00" meanHaltingDuration="0.00" maxHaltingDuration="0.00" haltingDurationSum="0.00" meanIntervalHaltingDuration="0.00" maxIntervalHaltingDuration="0.00" intervalHaltingDurationSum="0.00" startedHalts="0.00" meanVehicleNumber="0.00" maxVehicleNumber="0" />
   <interval begin="22500.00" end="22600.00" id="e2_L40404_3_4" sampledSeconds="56.00" nVehEntered="1" nVehLeft="0" nVehSeen="1" meanSpeed="0.14" meanTimeLoss="55.36" meanOccupancy="9.50" maxOccupancy="16.96" meanMaxJamLengthInVehicles="0.52" meanMaxJamLengthInMeters="2.40" maxJamLengthInVehicles="1" maxJamLengthInMeters="4.62" jamLengthInVehiclesSum="52" jamLengthInMetersSum="240.24" meanHaltingDuration="53.00" maxHaltingDuration="53.00" haltingDurationSum="53.00" meanIntervalHaltingDuration="53.00" maxIntervalHaltingDuration="53.00" intervalHaltingDurationSum="53.00" startedHalts="1.00" meanVehicleNumber="0.56" maxVehicleNumber="1" />
   <interval begin="22600.00" end="22700.00" id="e2_L40404_3_4" sampledSeconds="36.00" nVehEntered="2" nVehLeft="1" nVehSeen="3" meanSpeed="0.98" meanTimeLoss="11.06" meanOccupancy="5.48" maxOccupancy="27.48" meanMaxJamLengthInVehicles="0.22" meanMaxJamLengthInMeters="1.00" maxJamLengthInVehicles="2" maxJamLengthInMeters="11.65" jamLengthInVehiclesSum="22" jamLengthInMetersSum="100.34" meanHaltingDuration="25.67" maxHaltingDuration="72.00" haltingDurationSum="77.00" meanIntervalHaltingDuration="8.00" maxIntervalHaltingDuration="19.00" intervalHaltingDurationSum="24.00" startedHalts="2.00" meanVehicleNumber="0.36" maxVehicleNumber="2" />
   <interval begin="22700.00" end="22800.00" id="e2_L40404_3_4" sampledSeconds="156.84" nVehEntered="0" nVehLeft="2" nVehSeen="2" meanSpeed="0.06" meanTimeLoss="78.07" meanOccupancy="15.88" maxOccupancy="20.24" meanMaxJamLengthInVehicles="1.55" meanMaxJamLengthInMeters="9.00" maxJamLengthInVehicles="2" maxJamLengthInMeters="12.13" jamLengthInVehiclesSum="155" jamLengthInMetersSum="900.25" meanHaltingDuration="80.00" maxHaltingDuration="80.00" haltingDurationSum="80.00" meanIntervalHaltingDuration="78.00" maxIntervalHaltingDuration="78.00" intervalHaltingDurationSum="78.00" startedHalts="0.00" meanVehicleNumber="1.58" maxVehicleNumber="2" />
   <interval begin="22800.00" end="22900.00" id="e2_L40404_3_4" sampledSeconds="31.00" nVehEntered="1" nVehLeft="0" nVehSeen="1" meanSpeed="0.40" meanTimeLoss="30.00" meanOccupancy="5.26" maxOccupancy="16.96" meanMaxJamLengthInVehicles="0.27" meanMaxJamLengthInMeters="1.25" maxJamLengthInVehicles="1" maxJamLengthInMeters="4.62" jamLengthInVehiclesSum="27" jamLengthInMetersSum="124.74" meanHaltingDuration="28.00" maxHaltingDuration="28.00" haltingDurationSum="28.00" meanIntervalHaltingDuration="28.00" maxIntervalHaltingDuration="28.00" intervalHaltingDurationSum="28.00" startedHalts="1.00" meanVehicleNumber="0.31" maxVehicleNumber="1" />
   <interval begin="22900.00" end="23000.00" id="e2_L40404_3_4" sampledSeconds="41.20" nVehEntered="0" nVehLeft="1" nVehSeen="1" meanSpeed="0.19" meanTimeLoss="40.57" meanOccupancy="6.69" maxOccupancy="16.96" meanMaxJamLengthInVehicles="0.38" meanMaxJamLengthInMeters="1.76" maxJamLengthInVehicles="1" maxJamLengthInMeters="4.62" jamLengthInVehiclesSum="38" jamLengthInMetersSum="175.56" meanHaltingDuration="66.00" maxHaltingDuration="66.00" haltingDurationSum="66.00" meanIntervalHaltingDuration="38.00" maxIntervalHaltingDuration="38.00" intervalHaltingDurationSum="38.00" startedHalts="0.00" meanVehicleNumber="0.42" maxVehicleNumber="1" />
   <interval begin="23000.00" end="23100.00" id="e2_L40404_3_4" sampledSeconds="80.00" nVehEntered="1" nVehLeft="0" nVehSeen="1" meanSpeed="0.20" meanTimeLoss="78.74" meanOccupancy="13.57" maxOccupancy="16.96" meanMaxJamLengthInVehicles="0.76" meanMaxJamLengthInMeters="3.51" maxJamLengthInVehicles="1" maxJamLengthInMeters="4.62" jamLengthInVehiclesSum="76" jamLengthInMetersSum="351.12" meanHaltingDuration="77.00" maxHaltingDuration="77.00" haltingDurationSum="77.00" meanIntervalHaltingDuration="77.00" maxIntervalHaltingDuration="77.00" intervalHaltingDurationSum="77.00" startedHalts="1.00" meanVehicleNumber="0.80" maxVehicleNumber="1" />
   <interval begin="23100.00" end="23200.00" id="e2_L40404_3_4" sampledSeconds="18.00" nVehEntered="1" nVehLeft="1" nVehSeen="2" meanSpeed="0.83" meanTimeLoss="8.41" meanOccupancy="3.00" maxOccupancy="16.96" meanMaxJamLengthInVehicles="0.12" meanMaxJamLengthInMeters="0.55" maxJamLengthInVehicles="1" maxJamLengthInMeters="4.62" jamLengthInVehiclesSum="12" jamLengthInMetersSum="55.44" meanHaltingDuration="45.00" maxHaltingDuration="81.00" haltingDurationSum="90.00" meanIntervalHaltingDuration="6.50" maxIntervalHaltingDuration="9.00" intervalHaltingDurationSum="13.00" startedHalts="1.00" meanVehicleNumber="0.18" maxVehicleNumber="1" />
   <interval begin="23200.00" end="23300.00" id="e2_L40404_3_4" sampledSeconds="59.00" nVehEntered="0" nVehLeft="1" nVehSeen="1" meanSpeed="0.08" meanTimeLoss="58.64" meanOccupancy="9.96" maxOccupancy="16.96" meanMaxJamLengthInVehicles="0.58" meanMaxJamLengthInMeters="2.68" maxJamLengthInVehicles="1" maxJamLengthInMeters="4.62" jamLengthInVehiclesSum="58" jamLengthInMetersSum="267.96" meanHaltingDuration="67.00" maxHaltingDuration="67.00" haltingDurationSum="67.00" meanIntervalHaltingDuration="58.00" maxIntervalHaltingDuration="58.00" intervalHaltingDurationSum="58.00" startedHalts="0.00" meanVehicleNumber="0.59" maxVehicleNumber="1" />
   <interval begin="23300.00" end="23400.00" id="e2_L40404_3_4" sampledSeconds="44.00" nVehEntered="1" nVehLeft="0" nVehSeen="1" meanSpeed="0.19" meanTimeLoss="43.32" meanOccupancy="7.46" maxOccupancy="16.96" meanMaxJamLengthInVehicles="0.40" meanMaxJamLengthInMeters="1.85" maxJamLengthInVehicles="1" maxJamLengthInMeters="4.62" jamLengthInVehiclesSum="40" jamLengthInMetersSum="184.80" meanHaltingDuration="41.00" maxHaltingDuration="41.00" haltingDurationSum="41.00" meanIntervalHaltingDuration="41.00" maxIntervalHaltingDuration="41.00" intervalHaltingDurationSum="41.00" startedHalts="1.00" meanVehicleNumber="0.44" maxVehicleNumber="1" />
   <interval begin="23400.00" end="23500.00" id="e2_L40404_3_4" sampledSeconds="26.14" nVehEntered="1" nVehLeft="2" nVehSeen="2" meanSpeed="0.71" meanTimeLoss="12.33" meanOccupancy="4.26" maxOccupancy="33.92" meanMaxJamLengthInVehicles="0.22" meanMaxJamLengthInMeters="1.12" maxJamLengthInVehicles="2" maxJamLengthInMeters="13.12" jamLengthInVehiclesSum="22" jamLengthInMetersSum="112.10" meanHaltingDuration="4.00" maxHaltingDuration="4.00" haltingDurationSum="4.00" meanIntervalHaltingDuration="4.00" maxIntervalHaltingDuration="4.00" intervalHaltingDurationSum="4.00" startedHalts="1.00" meanVehicleNumber="0.27" maxVehicleNumber="2" />
   <interval begin="23500.00" end="23600.00" id="e2_L40404_3_4" sampledSeconds="77.09" nVehEntered="1" nVehLeft="1" nVehSeen="1" meanSpeed="0.26" meanTimeLoss="75.48" meanOccupancy="12.84" maxOccupancy="16.96" meanMaxJamLengthInVehicles="0.70" meanMaxJamLengthInMeters="3.23" maxJamLengthInVehicles="1" maxJamLengthInMeters="4.62" jamLengthInVehiclesSum="70" jamLengthInMetersSum="323.40" meanHaltingDuration="71.00" maxHaltingDuration="71.00" haltingDurationSum="71.00" meanIntervalHaltingDuration="71.00" maxIntervalHaltingDuration="71.00" intervalHaltingDurationSum="71.00" startedHalts="1.00" meanVehicleNumber="0.78" maxVehicleNumber="1" />
   <interval begin="23600.00" end="23700.00" id="e2_L40404_3_4" sampledSeconds="0.00" nVehEntered="0" nVehLeft="0" nVehSeen="0" meanSpeed="-1.00" meanTimeLoss="-1.00" meanOccupancy="0.00" maxOccupancy="0.00" meanMaxJamLengthInVehicles="0.00" meanMaxJamLengthInMeters="0.00" maxJamLengthInVehicles="0" maxJamLengthInMeters="0.00" jamLengthInVehiclesSum="0" jamLengthInMetersSum="0.00" meanHaltingDuration="0.00" maxHaltingDuration="0.00" haltingDurationSum="0.00" meanIntervalHaltingDuration="0.00" maxIntervalHaltingDuration="0.00" intervalHaltingDurationSum="0.00" startedHalts="0.00" meanVehicleNumber="0.00" maxVehicleNumber="0" />
   <interval begin="23700.00" end="23800.00" id="e2_L40404_3_4" sampledSeconds="42.86" nVehEntered="2" nVehLeft="2" nVehSeen="2" meanSpeed="0.67" meanTimeLoss="20.29" meanOccupancy="6.79" maxOccupancy="16.96" meanMaxJamLengthInVehicles="0.33" meanMaxJamLengthInMeters="1.52" maxJamLengthInVehicles="1" maxJamLengthInMeters="4.62" jamLengthInVehiclesSum="33" jamLengthInMetersSum="151.94" meanHaltingDuration="17.50" maxHaltingDuration="34.00" haltingDurationSum="35.00" meanIntervalHaltingDuration="17.50" maxIntervalHaltingDuration="34.00" intervalHaltingDurationSum="35.00" startedHalts="2.00" meanVehicleNumber="0.43" maxVehicleNumber="2" />
   <interval begin="23800.00" end="23900.00" id="e2_L40404_3_4" sampledSeconds="0.00" nVehEntered="0" nVehLeft="0" nVehSeen="0" meanSpeed="-1.00" meanTimeLoss="-1.00" meanOccupancy="0.00" maxOccupancy="0.00" meanMaxJamLengthInVehicles="0.00" meanMaxJamLengthInMeters="0.00" maxJamLengthInVehicles="0" maxJamLengthInMeters="0.00" jamLengthInVehiclesSum="0" jamLengthInMetersSum="0.00" meanHaltingDuration="0.00" maxHaltingDuration="0.00" haltingDurationSum="0.00" meanIntervalHaltingDuration="0.00" maxIntervalHaltingDuration="0.00" intervalHaltingDurationSum="0.00" startedHalts="0.00" meanVehicleNumber="0.00" maxVehicleNumber="0" />
   <interval begin="23900.00" end="24000.00" id="e2_L40404_3_4" sampledSeconds="0.00" nVehEntered="0" nVehLeft="0" nVehSeen="0" meanSpeed="-1.00" meanTimeLoss="-1.00" meanOccupancy="0.00" maxOccupancy="0.00" meanMaxJamLengthInVehicles="0.00" meanMaxJamLengthInMeters="0.00" maxJamLengthInVehicles="0" maxJamLengthInMeters="0.00" jamLengthInVehiclesSum="0" jamLengthInMetersSum="0.00" meanHaltingDuration="0.00" maxHaltingDuration="0.00" haltingDurationSum="0.00" meanIntervalHaltingDuration="0.00" maxIntervalHaltingDuration="0.00" intervalHaltingDurationSum="0.00" startedHalts="0.00" meanVehicleNumber="0.00" maxVehicleNumber="0" />
   <interval begin="24000.00" end="24100.00" id="e2_L40404_3_4" sampledSeconds="0.00" nVehEntered="0" nVehLeft="0" nVehSeen="0" meanSpeed="-1.00" meanTimeLoss="-1.00" meanOccupancy="0.00" maxOccupancy="0.00" meanMaxJamLengthInVehicles="0.00" meanMaxJamLengthInMeters="0.00" maxJamLengthInVehicles="0" maxJamLengthInMeters="0.00" jamLengthInVehiclesSum="0" jamLengthInMetersSum="0.00" meanHaltingDuration="0.00" maxHaltingDuration="0.00" haltingDurationSum="0.00" meanIntervalHaltingDuration="0.00" maxIntervalHaltingDuration="0.00" intervalHaltingDurationSum="0.00" startedHalts="0.00" meanVehicleNumber="0.00" maxVehicleNumber="0" />
   <interval begin="24100.00" end="24200.00" id="e2_L40404_3_4" sampledSeconds="0.00" nVehEntered="0" nVehLeft="0" nVehSeen="0" meanSpeed="-1.00" meanTimeLoss="-1.00" meanOccupancy="0.00" maxOccupancy="0.00" meanMaxJamLengthInVehicles="0.00" meanMaxJamLengthInMeters="0.00" maxJamLengthInVehicles="0" maxJamLengthInMeters="0.00" jamLengthInVehiclesSum="0" jamLengthInMetersSum="0.00" meanHaltingDuration="0.00" maxHaltingDuration="0.00" haltingDurationSum="0.00" meanIntervalHaltingDuration="0.00" maxIntervalHaltingDuration="0.00" intervalHaltingDurationSum="0.00" startedHalts="0.00" meanVehicleNumber="0.00" maxVehicleNumber="0" />
   <interval begin="24200.00" end="24300.00" id="e2_L40404_3_4" sampledSeconds="0.00" nVehEntered="0" nVehLeft="0" nVehSeen="0" meanSpeed="-1.00" meanTimeLoss="-1.00" meanOccupancy="0.00" maxOccupancy="0.00" meanMaxJamLengthInVehicles="0.00" meanMaxJamLengthInMeters="0.00" maxJamLengthInVehicles="0" maxJamLengthInMeters="0.00" jamLengthInVehiclesSum="0" jamLengthInMetersSum="0.00" meanHaltingDuration="0.00" maxHaltingDuration="0.00" haltingDurationSum="0.00" meanIntervalHaltingDuration="0.00" maxIntervalHaltingDuration="0.00" intervalHaltingDurationSum="0.00" startedHalts="0.00" meanVehicleNumber="0.00" maxVehicleNumber="0" />
   <interval begin="24300.00" end="24400.00" id="e2_L40404_3_4" sampledSeconds="0.00" nVehEntered="0" nVehLeft="0" nVehSeen="0" meanSpeed="-1.00" meanTimeLoss="-1.00" meanOccupancy="0.00" maxOccupancy="0.00" meanMaxJamLengthInVehicles="0.00" meanMaxJamLengthInMeters="0.00" maxJamLengthInVehicles="0" maxJamLengthInMeters="0.00" jamLengthInVehiclesSum="0" jamLengthInMetersSum="0.00" meanHaltingDuration="0.00" maxHaltingDuration="0.00" haltingDurationSum="0.00" meanIntervalHaltingDuration="0.00" maxIntervalHaltingDuration="0.00" intervalHaltingDurationSum="0.00" startedHalts="0.00" meanVehicleNumber="0.00" maxVehicleNumber="0" />
   <interval begin="24400.00" end="24500.00" id="e2_L40404_3_4" sampledSeconds="0.00" nVehEntered="0" nVehLeft="0" nVehSeen="0" meanSpeed="-1.00" meanTimeLoss="-1.00" meanOccupancy="0.00" maxOccupancy="0.00" meanMaxJamLengthInVehicles="0.00" meanMaxJamLengthInMeters="0.00" maxJamLengthInVehicles="0" maxJamLengthInMeters="0.00" jamLengthInVehiclesSum="0" jamLengthInMetersSum="0.00" meanHaltingDuration="0.00" maxHaltingDuration="0.00" haltingDurationSum="0.00" meanIntervalHaltingDuration="0.00" maxIntervalHaltingDuration="0.00" intervalHaltingDurationSum="0.00" startedHalts="0.00" meanVehicleNumber="0.00" maxVehicleNumber="0" />
   <interval begin="24500.00" end="24600.00" id="e2_L40404_3_4" sampledSeconds="41.00" nVehEntered="1" nVehLeft="0" nVehSeen="1" meanSpeed="0.00" meanTimeLoss="41.00" meanOccupancy="6.95" maxOccupancy="16.96" meanMaxJamLengthInVehicles="0.40" meanMaxJamLengthInMeters="1.85" maxJamLengthInVehicles="1" maxJamLengthInMeters="4.62" jamLengthInVehiclesSum="40" jamLengthInMetersSum="184.80" meanHaltingDuration="41.00" maxHaltingDuration="41.00" haltingDurationSum="41.00" meanIntervalHaltingDuration="41.00" maxIntervalHaltingDuration="41.00" intervalHaltingDurationSum="41.00" startedHalts="1.00" meanVehicleNumber="0.41" maxVehicleNumber="1" />
   <interval begin="24600.00" end="24700.00" id="e2_L40404_3_4" sampledSeconds="37.08" nVehEntered="1" nVehLeft="2" nVehSeen="2" meanSpeed="0.49" meanTimeLoss="17.82" meanOccupancy="5.93" maxOccupancy="16.96" meanMaxJamLengthInVehicles="0.32" meanMaxJamLengthInMeters="1.48" maxJamLengthInVehicles="1" maxJamLengthInMeters="4.62" jamLengthInVehiclesSum="32" jamLengthInMetersSum="147.84" meanHaltingDuration="73.00" maxHaltingDuration="73.00" haltingDurationSum="73.00" meanIntervalHaltingDuration="32.00" maxIntervalHaltingDuration="32.00" intervalHaltingDurationSum="32.00" startedHalts="0.00" meanVehicleNumber="0.38" maxVehicleNumber="1" />
   <interval begin="24700.00" end="24800.00" id="e2_L40404_3_4" sampledSeconds="25.00" nVehEntered="2" nVehLeft="0" nVehSeen="2" meanSpeed="1.03" meanTimeLoss="11.47" meanOccupancy="2.42" maxOccupancy="20.23" meanMaxJamLengthInVehicles="0.16" meanMaxJamLengthInMeters="0.64" maxJamLengthInVehicles="2" maxJamLengthInMeters="11.61" jamLengthInVehiclesSum="16" jamLengthInMetersSum="63.55" meanHaltingDuration="9.00" maxHaltingDuration="12.00" haltingDurationSum="18.00" meanIntervalHaltingDuration="9.00" maxIntervalHaltingDuration="12.00" intervalHaltingDurationSum="18.00" startedHalts="2.00" meanVehicleNumber="0.25" maxVehicleNumber="2" />
   <interval begin="24800.00" end="24900.00" id="e2_L40404_3_4" sampledSeconds="224.82" nVehEntered="1" nVehLeft="3" nVehSeen="3" meanSpeed="0.15" meanTimeLoss="74.05" meanOccupancy="27.55" maxOccupancy="37.19" meanMaxJamLengthInVehicles="2.14" meanMaxJamLengthInMeters="13.12" maxJamLengthInVehicles="3" maxJamLengthInMeters="19.68" jamLengthInVehiclesSum="214" jamLengthInMetersSum="1312.09" meanHaltingDuration="49.33" maxHaltingDuration="82.00" haltingDurationSum="148.00" meanIntervalHaltingDuration="47.33" maxIntervalHaltingDuration="76.00" intervalHaltingDurationSum="142.00" startedHalts="2.00" meanVehicleNumber="2.27" maxVehicleNumber="3" />
   <interval begin="24900.00" end="25000.00" id="e2_L40404_3_4" sampledSeconds="0.00" nVehEntered="0" nVehLeft="0" nVehSeen="0" meanSpeed="-1.00" meanTimeLoss="-1.00" meanOccupancy="0.00" maxOccupancy="0.00" meanMaxJamLengthInVehicles="0.00" meanMaxJamLengthInMeters="0.00" maxJamLengthInVehicles="0" maxJamLengthInMeters="0.00" jamLengthInVehiclesSum="0" jamLengthInMetersSum="0.00" meanHaltingDuration="0.00" maxHaltingDuration="0.00" haltingDurationSum="0.00" meanIntervalHaltingDuration="0.00" maxIntervalHaltingDuration="0.00" intervalHaltingDurationSum="0.00" startedHalts="0.00" meanVehicleNumber="0.00" maxVehicleNumber="0" />
   <interval begin="25000.00" end="25100.00" id="e2_L40404_3_4" sampledSeconds="0.00" nVehEntered="0" nVehLeft="0" nVehSeen="0" meanSpeed="-1.00" meanTimeLoss="-1.00" meanOccupancy="0.00" maxOccupancy="0.00" meanMaxJamLengthInVehicles="0.00" meanMaxJamLengthInMeters="0.00" maxJamLengthInVehicles="0" maxJamLengthInMeters="0.00" jamLengthInVehiclesSum="0" jamLengthInMetersSum="0.00" meanHaltingDuration="0.00" maxHaltingDuration="0.00" haltingDurationSum="0.00" meanIntervalHaltingDuration="0.00" maxIntervalHaltingDuration="0.00" intervalHaltingDurationSum="0.00" startedHalts="0.00" meanVehicleNumber="0.00" maxVehicleNumber="0" />
   <interval begin="25100.00" end="25200.00" id="e2_L40404_3_4" sampledSeconds="0.00" nVehEntered="0" nVehLeft="0" nVehSeen="0" meanSpeed="-1.00" meanTimeLoss="-1.00" meanOccupancy="0.00" maxOccupancy="0.00" meanMaxJamLengthInVehicles="0.00" meanMaxJamLengthInMeters="0.00" maxJamLengthInVehicles="0" maxJamLengthInMeters="0.00" jamLengthInVehiclesSum="0" jamLengthInMetersSum="0.00" meanHaltingDuration="0.00" maxHaltingDuration="0.00" haltingDurationSum="0.00" meanIntervalHaltingDuration="0.00" maxIntervalHaltingDuration="0.00" intervalHaltingDurationSum="0.00" startedHalts="0.00" meanVehicleNumber="0.00" maxVehicleNumber="0" />
   <interval begin="25200.00" end="25300.00" id="e2_L40404_3_4" sampledSeconds="0.00" nVehEntered="0" nVehLeft="0" nVehSeen="0" meanSpeed="-1.00" meanTimeLoss="-1.00" meanOccupancy="0.00" maxOccupancy="0.00" meanMaxJamLengthInVehicles="0.00" meanMaxJamLengthInMeters="0.00" maxJamLengthInVehicles="0" maxJamLengthInMeters="0.00" jamLengthInVehiclesSum="0" jamLengthInMetersSum="0.00" meanHaltingDuration="0.00" maxHaltingDuration="0.00" haltingDurationSum="0.00" meanIntervalHaltingDuration="0.00" maxIntervalHaltingDuration="0.00" intervalHaltingDurationSum="0.00" startedHalts="0.00" meanVehicleNumber="0.00" maxVehicleNumber="0" />
   <interval begin="25300.00" end="25400.00" id="e2_L40404_3_4" sampledSeconds="0.00" nVehEntered="0" nVehLeft="0" nVehSeen="0" meanSpeed="-1.00" meanTimeLoss="-1.00" meanOccupancy="0.00" maxOccupancy="0.00" meanMaxJamLengthInVehicles="0.00" meanMaxJamLengthInMeters="0.00" maxJamLengthInVehicles="0" maxJamLengthInMeters="0.00" jamLengthInVehiclesSum="0" jamLengthInMetersSum="0.00" meanHaltingDuration="0.00" maxHaltingDuration="0.00" haltingDurationSum="0.00" meanIntervalHaltingDuration="0.00" maxIntervalHaltingDuration="0.00" intervalHaltingDurationSum="0.00" startedHalts="0.00" meanVehicleNumber="0.00" maxVehicleNumber="0" />
   <interval begin="25400.00" end="25500.00" id="e2_L40404_3_4" sampledSeconds="0.00" nVehEntered="0" nVehLeft="0" nVehSeen="0" meanSpeed="-1.00" meanTimeLoss="-1.00" meanOccupancy="0.00" maxOccupancy="0.00" meanMaxJamLengthInVehicles="0.00" meanMaxJamLengthInMeters="0.00" maxJamLengthInVehicles="0" maxJamLengthInMeters="0.00" jamLengthInVehiclesSum="0" jamLengthInMetersSum="0.00" meanHaltingDuration="0.00" maxHaltingDuration="0.00" haltingDurationSum="0.00" meanIntervalHaltingDuration="0.00" maxIntervalHaltingDuration="0.00" intervalHaltingDurationSum="0.00" startedHalts="0.00" meanVehicleNumber="0.00" maxVehicleNumber="0" />
   <interval begin="25500.00" end="25600.00" id="e2_L40404_3_4" sampledSeconds="76.00" nVehEntered="1" nVehLeft="0" nVehSeen="1" meanSpeed="0.19" meanTimeLoss="74.87" meanOccupancy="12.89" maxOccupancy="16.96" meanMaxJamLengthInVehicles="0.72" meanMaxJamLengthInMeters="3.33" maxJamLengthInVehicles="1" maxJamLengthInMeters="4.62" jamLengthInVehiclesSum="72" jamLengthInMetersSum="332.64" meanHaltingDuration="73.00" maxHaltingDuration="73.00" haltingDurationSum="73.00" meanIntervalHaltingDuration="73.00" maxIntervalHaltingDuration="73.00" intervalHaltingDurationSum="73.00" startedHalts="1.00" meanVehicleNumber="0.76" maxVehicleNumber="1" />
   <interval begin="25600.00" end="25700.00" id="e2_L40404_3_4" sampledSeconds="67.50" nVehEntered="1" nVehLeft="2" nVehSeen="2" meanSpeed="0.33" meanTimeLoss="32.87" meanOccupancy="11.04" maxOccupancy="16.96" meanMaxJamLengthInVehicles="0.59" meanMaxJamLengthInMeters="2.73" maxJamLengthInVehicles="1" maxJamLengthInMeters="4.62" jamLengthInVehiclesSum="59" jamLengthInMetersSum="272.58" meanHaltingDuration="44.67" maxHaltingDuration="132.00" haltingDurationSum="134.00" meanIntervalHaltingDuration="20.33" maxIntervalHaltingDuration="59.00" intervalHaltingDurationSum="61.00" startedHalts="2.00" meanVehicleNumber="0.69" maxVehicleNumber="2" />
   <interval begin="25700.00" end="25800.00" id="e2_L40404_3_4" sampledSeconds="62.00" nVehEntered="1" nVehLeft="0" nVehSeen="1" meanSpeed="0.08" meanTimeLoss="61.60" meanOccupancy="10.52" maxOccupancy="16.96" meanMaxJamLengthInVehicles="0.60" meanMaxJamLengthInMeters="2.77" maxJamLengthInVehicles="1" maxJamLengthInMeters="4.62" jamLengthInVehiclesSum="60" jamLengthInMetersSum="277.20" meanHaltingDuration="61.00" maxHaltingDuration="61.00" haltingDurationSum="61.00" meanIntervalHaltingDuration="61.00" maxIntervalHaltingDuration="61.00" intervalHaltingDurationSum="61.00" startedHalts="1.00" meanVehicleNumber="0.62" maxVehicleNumber="1" />
   <interval begin="25800.00" end="25900.00" id="e2_L40404_3_4" sampledSeconds="100.00" nVehEntered="0" nVehLeft="0" nVehSeen="1" meanSpeed="0.00" meanTimeLoss="100.00" meanOccupancy="16.96" maxOccupancy="16.96" meanMaxJamLengthInVehicles="1.00" meanMaxJamLengthInMeters="4.62" maxJamLengthInVehicles="1" maxJamLengthInMeters="4.62" jamLengthInVehiclesSum="100" jamLengthInMetersSum="462.00" meanHaltingDuration="161.00" maxHaltingDuration="161.00" haltingDurationSum="161.00" meanIntervalHaltingDuration="100.00" maxIntervalHaltingDuration="100.00" intervalHaltingDurationSum="100.00" startedHalts="0.00" meanVehicleNumber="1.00" maxVehicleNumber="1" />
   <interval begin="25900.00" end="26000.00" id="e2_L40404_3_4" sampledSeconds="73.35" nVehEntered="1" nVehLeft="2" nVehSeen="2" meanSpeed="0.26" meanTimeLoss="35.92" meanOccupancy="12.20" maxOccupancy="29.17" meanMaxJamLengthInVehicles="0.66" meanMaxJamLengthInMeters="3.04" maxJamLengthInVehicles="1" maxJamLengthInMeters="4.62" jamLengthInVehiclesSum="66" jamLengthInMetersSum="304.38" meanHaltingDuration="114.00" maxHaltingDuration="223.00" haltingDurationSum="228.00" meanIntervalHaltingDuration="33.50" maxIntervalHaltingDuration="62.00" intervalHaltingDurationSum="67.00" startedHalts="1.00" meanVehicleNumber="0.74" maxVehicleNumber="2" />