<?xml version="1.0" encoding="UTF-8"?>

<!-- generated on Sun Feb 17 15:57:00 2019 by 
<configuration xmlns:xsi="http://www.w3.org/2001/XMLSchema-instance" xsi:noNamespaceSchemaLocation="http://sumo.dlr.de/xsd/Configuration.xsd">

    <input>
        <net-file value="/home/sda/Documents/sumo-sathorn-ray/models/sathorn-morning/sathorn_w_fixed_20160404.net.xml"/>
        <route-files value="/home/sda/Documents/sumo-sathorn-ray/models/sathorn-morning/Great-route/sathorn_w_20160422edit2.rou.xml"/>
        <additional-files value="/home/sda/Documents/sumo-sathorn-ray/models/sathorn-morning/sathon_wide_tls_20160418_edited.add.xml,/home/sda/Documents/sumo-sathorn-ray/detectors/sathorn_w_detectors.add.xml"/>
    </input>

    <time>
        <begin value="21600"/>
        <end value="32400"/>
        <step-length value="1"/>
    </time>

    <processing>
        <no-internal-links value="true"/>
        <ignore-junction-blocker value="-1"/>
        <time-to-teleport value="-1"/>
        <eager-insert value="true"/>
        <time-to-impatience value="300"/>
    </processing>

    <report>
        <no-warnings value="true"/>
    </report>

    <random_number>
        <random value="false"/>
        <seed value="20"/>
    </random_number>

    <gui_only>
        <gui-settings-file value="/home/sda/Documents/sumo-sathorn-ray/gui-settings/gui-settings-file-surasak.xml"/>
        <quit-on-end value="true"/>
        <start value="true"/>
        <tracker-interval value="1"/>
    </gui_only>

</configuration>
-->

<detector xmlns:xsi="http://www.w3.org/2001/XMLSchema-instance" xsi:noNamespaceSchemaLocation="http://sumo.dlr.de/xsd/det_e2_file.xsd">
   <interval begin="21600.00" end="21700.00" id="e2_L40_3_1" sampledSeconds="0.00" nVehEntered="0" nVehLeft="0" nVehSeen="0" meanSpeed="-1.00" meanTimeLoss="-1.00" meanOccupancy="0.00" maxOccupancy="0.00" meanMaxJamLengthInVehicles="0.00" meanMaxJamLengthInMeters="0.00" maxJamLengthInVehicles="0" maxJamLengthInMeters="0.00" jamLengthInVehiclesSum="0" jamLengthInMetersSum="0.00" meanHaltingDuration="0.00" maxHaltingDuration="0.00" haltingDurationSum="0.00" meanIntervalHaltingDuration="0.00" maxIntervalHaltingDuration="0.00" intervalHaltingDurationSum="0.00" startedHalts="0.00" meanVehicleNumber="0.00" maxVehicleNumber="0" />
   <interval begin="21700.00" end="21800.00" id="e2_L40_3_1" sampledSeconds="0.00" nVehEntered="0" nVehLeft="0" nVehSeen="0" meanSpeed="-1.00" meanTimeLoss="-1.00" meanOccupancy="0.00" maxOccupancy="0.00" meanMaxJamLengthInVehicles="0.00" meanMaxJamLengthInMeters="0.00" maxJamLengthInVehicles="0" maxJamLengthInMeters="0.00" jamLengthInVehiclesSum="0" jamLengthInMetersSum="0.00" meanHaltingDuration="0.00" maxHaltingDuration="0.00" haltingDurationSum="0.00" meanIntervalHaltingDuration="0.00" maxIntervalHaltingDuration="0.00" intervalHaltingDurationSum="0.00" startedHalts="0.00" meanVehicleNumber="0.00" maxVehicleNumber="0" />
   <interval begin="21800.00" end="21900.00" id="e2_L40_3_1" sampledSeconds="4.47" nVehEntered="3" nVehLeft="3" nVehSeen="3" meanSpeed="7.27" meanTimeLoss="0.62" meanOccupancy="0.06" maxOccupancy="2.72" meanMaxJamLengthInVehicles="0.00" meanMaxJamLengthInMeters="0.00" maxJamLengthInVehicles="0" maxJamLengthInMeters="0.00" jamLengthInVehiclesSum="0" jamLengthInMetersSum="0.00" meanHaltingDuration="0.00" maxHaltingDuration="0.00" haltingDurationSum="0.00" meanIntervalHaltingDuration="0.00" maxIntervalHaltingDuration="0.00" intervalHaltingDurationSum="0.00" startedHalts="0.00" meanVehicleNumber="0.06" maxVehicleNumber="1" />
   <interval begin="21900.00" end="22000.00" id="e2_L40_3_1" sampledSeconds="299.00" nVehEntered="6" nVehLeft="0" nVehSeen="6" meanSpeed="0.36" meanTimeLoss="48.39" meanOccupancy="7.65" maxOccupancy="15.70" meanMaxJamLengthInVehicles="2.72" meanMaxJamLengthInMeters="17.10" maxJamLengthInVehicles="6" maxJamLengthInMeters="39.65" jamLengthInVehiclesSum="272" jamLengthInMetersSum="1710.46" meanHaltingDuration="46.33" maxHaltingDuration="77.00" haltingDurationSum="278.00" meanIntervalHaltingDuration="46.33" maxIntervalHaltingDuration="77.00" intervalHaltingDurationSum="278.00" startedHalts="6.00" meanVehicleNumber="2.99" maxVehicleNumber="6" />
   <interval begin="22000.00" end="22100.00" id="e2_L40_3_1" sampledSeconds="1062.79" nVehEntered="8" nVehLeft="0" nVehSeen="14" meanSpeed="0.31" meanTimeLoss="74.02" meanOccupancy="28.28" maxOccupancy="37.44" meanMaxJamLengthInVehicles="10.12" meanMaxJamLengthInMeters="68.40" maxJamLengthInVehicles="14" maxJamLengthInMeters="95.63" jamLengthInVehiclesSum="1012" jamLengthInMetersSum="6839.86" meanHaltingDuration="92.71" maxHaltingDuration="177.00" haltingDurationSum="1298.00" meanIntervalHaltingDuration="72.86" maxIntervalHaltingDuration="100.00" intervalHaltingDurationSum="1020.00" startedHalts="8.00" meanVehicleNumber="10.64" maxVehicleNumber="14" />
   <interval begin="22100.00" end="22200.00" id="e2_L40_3_1" sampledSeconds="1689.43" nVehEntered="8" nVehLeft="3" nVehSeen="22" meanSpeed="0.30" meanTimeLoss="74.93" meanOccupancy="45.28" maxOccupancy="51.03" meanMaxJamLengthInVehicles="13.98" meanMaxJamLengthInMeters="96.60" maxJamLengthInVehicles="18" maxJamLengthInMeters="130.53" jamLengthInVehiclesSum="1524" jamLengthInMetersSum="10483.95" meanHaltingDuration="49.41" maxHaltingDuration="228.00" haltingDurationSum="2866.00" meanIntervalHaltingDuration="27.03" maxIntervalHaltingDuration="70.00" intervalHaltingDurationSum="1568.00" startedHalts="44.00" meanVehicleNumber="16.91" maxVehicleNumber="19" />
   <interval begin="22200.00" end="22300.00" id="e2_L40_3_1" sampledSeconds="2183.81" nVehEntered="6" nVehLeft="0" nVehSeen="25" meanSpeed="0.07" meanTimeLoss="86.87" meanOccupancy="58.66" maxOccupancy="66.53" meanMaxJamLengthInVehicles="21.48" meanMaxJamLengthInMeters="148.41" maxJamLengthInVehicles="25" maxJamLengthInMeters="171.03" jamLengthInVehiclesSum="2158" jamLengthInMetersSum="14911.35" meanHaltingDuration="92.61" maxHaltingDuration="128.00" haltingDurationSum="2408.00" meanIntervalHaltingDuration="83.31" maxIntervalHaltingDuration="100.00" intervalHaltingDurationSum="2166.00" startedHalts="8.00" meanVehicleNumber="21.84" maxVehicleNumber="25" />
   <interval begin="22300.00" end="22400.00" id="e2_L40_3_1" sampledSeconds="2500.00" nVehEntered="0" nVehLeft="0" nVehSeen="25" meanSpeed="0.00" meanTimeLoss="100.00" meanOccupancy="66.53" maxOccupancy="66.53" meanMaxJamLengthInVehicles="25.00" meanMaxJamLengthInMeters="171.03" maxJamLengthInVehicles="25" maxJamLengthInMeters="171.03" jamLengthInVehiclesSum="2500" jamLengthInMetersSum="17103.47" meanHaltingDuration="195.40" maxHaltingDuration="228.00" haltingDurationSum="4885.00" meanIntervalHaltingDuration="100.00" maxIntervalHaltingDuration="100.00" intervalHaltingDurationSum="2500.00" startedHalts="0.00" meanVehicleNumber="25.00" maxVehicleNumber="25" />
   <interval begin="22400.00" end="22500.00" id="e2_L40_3_1" sampledSeconds="2500.00" nVehEntered="0" nVehLeft="0" nVehSeen="25" meanSpeed="0.00" meanTimeLoss="100.00" meanOccupancy="66.53" maxOccupancy="66.53" meanMaxJamLengthInVehicles="25.00" meanMaxJamLengthInMeters="171.03" maxJamLengthInVehicles="25" maxJamLengthInMeters="171.03" jamLengthInVehiclesSum="2500" jamLengthInMetersSum="17103.47" meanHaltingDuration="295.40" maxHaltingDuration="328.00" haltingDurationSum="7385.00" meanIntervalHaltingDuration="100.00" maxIntervalHaltingDuration="100.00" intervalHaltingDurationSum="2500.00" startedHalts="0.00" meanVehicleNumber="25.00" maxVehicleNumber="25" />
   <interval begin="22500.00" end="22600.00" id="e2_L40_3_1" sampledSeconds="2500.00" nVehEntered="0" nVehLeft="0" nVehSeen="25" meanSpeed="0.00" meanTimeLoss="100.00" meanOccupancy="66.53" maxOccupancy="66.53" meanMaxJamLengthInVehicles="25.00" meanMaxJamLengthInMeters="171.03" maxJamLengthInVehicles="25" maxJamLengthInMeters="171.03" jamLengthInVehiclesSum="2500" jamLengthInMetersSum="17103.47" meanHaltingDuration="395.40" maxHaltingDuration="428.00" haltingDurationSum="9885.00" meanIntervalHaltingDuration="100.00" maxIntervalHaltingDuration="100.00" intervalHaltingDurationSum="2500.00" startedHalts="0.00" meanVehicleNumber="25.00" maxVehicleNumber="25" />
   <interval begin="22600.00" end="22700.00" id="e2_L40_3_1" sampledSeconds="2500.00" nVehEntered="0" nVehLeft="0" nVehSeen="25" meanSpeed="0.00" meanTimeLoss="100.00" meanOccupancy="66.53" maxOccupancy="66.53" meanMaxJamLengthInVehicles="25.00" meanMaxJamLengthInMeters="171.03" maxJamLengthInVehicles="25" maxJamLengthInMeters="171.03" jamLengthInVehiclesSum="2500" jamLengthInMetersSum="17103.47" meanHaltingDuration="495.40" maxHaltingDuration="528.00" haltingDurationSum="12385.00" meanIntervalHaltingDuration="100.00" maxIntervalHaltingDuration="100.00" intervalHaltingDurationSum="2500.00" startedHalts="0.00" meanVehicleNumber="25.00" maxVehicleNumber="25" />
   <interval begin="22700.00" end="22800.00" id="e2_L40_3_1" sampledSeconds="2351.30" nVehEntered="4" nVehLeft="4" nVehSeen="29" meanSpeed="0.30" meanTimeLoss="79.15" meanOccupancy="62.52" maxOccupancy="66.53" meanMaxJamLengthInVehicles="20.20" meanMaxJamLengthInMeters="139.59" maxJamLengthInVehicles="25" maxJamLengthInMeters="173.69" jamLengthInVehiclesSum="2101" jamLengthInMetersSum="14474.86" meanHaltingDuration="196.42" maxHaltingDuration="555.00" haltingDurationSum="14535.00" meanIntervalHaltingDuration="29.05" maxIntervalHaltingDuration="71.00" intervalHaltingDurationSum="2150.00" startedHalts="50.00" meanVehicleNumber="23.55" maxVehicleNumber="25" />
   <interval begin="22800.00" end="22900.00" id="e2_L40_3_1" sampledSeconds="2468.62" nVehEntered="0" nVehLeft="2" nVehSeen="25" meanSpeed="0.06" meanTimeLoss="98.29" meanOccupancy="65.66" maxOccupancy="66.53" meanMaxJamLengthInVehicles="23.77" meanMaxJamLengthInMeters="162.85" maxJamLengthInVehicles="25" maxJamLengthInMeters="173.70" jamLengthInVehiclesSum="2415" jamLengthInMetersSum="16526.47" meanHaltingDuration="101.16" maxHaltingDuration="154.00" haltingDurationSum="3743.00" meanIntervalHaltingDuration="65.59" maxIntervalHaltingDuration="100.00" intervalHaltingDurationSum="2427.00" startedHalts="12.00" meanVehicleNumber="24.70" maxVehicleNumber="25" />
   <interval begin="22900.00" end="23000.00" id="e2_L40_3_1" sampledSeconds="2453.67" nVehEntered="2" nVehLeft="0" nVehSeen="25" meanSpeed="0.08" meanTimeLoss="97.49" meanOccupancy="65.29" maxOccupancy="66.53" meanMaxJamLengthInVehicles="22.80" meanMaxJamLengthInMeters="156.76" maxJamLengthInVehicles="25" maxJamLengthInMeters="171.03" jamLengthInVehiclesSum="2377" jamLengthInMetersSum="16310.97" meanHaltingDuration="81.67" maxHaltingDuration="155.00" haltingDurationSum="4165.00" meanIntervalHaltingDuration="47.22" maxIntervalHaltingDuration="100.00" intervalHaltingDurationSum="2408.00" startedHalts="31.00" meanVehicleNumber="24.55" maxVehicleNumber="25" />
   <interval begin="23000.00" end="23100.00" id="e2_L40_3_1" sampledSeconds="2500.00" nVehEntered="0" nVehLeft="0" nVehSeen="25" meanSpeed="0.00" meanTimeLoss="100.00" meanOccupancy="66.53" maxOccupancy="66.53" meanMaxJamLengthInVehicles="25.00" meanMaxJamLengthInMeters="171.03" maxJamLengthInVehicles="25" maxJamLengthInMeters="171.03" jamLengthInVehiclesSum="2500" jamLengthInMetersSum="17103.47" meanHaltingDuration="193.24" maxHaltingDuration="212.00" haltingDurationSum="4831.00" meanIntervalHaltingDuration="100.00" maxIntervalHaltingDuration="100.00" intervalHaltingDurationSum="2500.00" startedHalts="0.00" meanVehicleNumber="25.00" maxVehicleNumber="25" />
   <interval begin="23100.00" end="23200.00" id="e2_L40_3_1" sampledSeconds="2500.00" nVehEntered="0" nVehLeft="0" nVehSeen="25" meanSpeed="0.00" meanTimeLoss="100.00" meanOccupancy="66.53" maxOccupancy="66.53" meanMaxJamLengthInVehicles="25.00" meanMaxJamLengthInMeters="171.03" maxJamLengthInVehicles="25" maxJamLengthInMeters="171.03" jamLengthInVehiclesSum="2500" jamLengthInMetersSum="17103.47" meanHaltingDuration="293.24" maxHaltingDuration="312.00" haltingDurationSum="7331.00" meanIntervalHaltingDuration="100.00" maxIntervalHaltingDuration="100.00" intervalHaltingDurationSum="2500.00" startedHalts="0.00" meanVehicleNumber="25.00" maxVehicleNumber="25" />
   <interval begin="23200.00" end="23300.00" id="e2_L40_3_1" sampledSeconds="2500.00" nVehEntered="0" nVehLeft="0" nVehSeen="25" meanSpeed="0.00" meanTimeLoss="100.00" meanOccupancy="66.53" maxOccupancy="66.53" meanMaxJamLengthInVehicles="25.00" meanMaxJamLengthInMeters="171.03" maxJamLengthInVehicles="25" maxJamLengthInMeters="171.03" jamLengthInVehiclesSum="2500" jamLengthInMetersSum="17103.47" meanHaltingDuration="393.24" maxHaltingDuration="412.00" haltingDurationSum="9831.00" meanIntervalHaltingDuration="100.00" maxIntervalHaltingDuration="100.00" intervalHaltingDurationSum="2500.00" startedHalts="0.00" meanVehicleNumber="25.00" maxVehicleNumber="25" />
   <interval begin="23300.00" end="23400.00" id="e2_L40_3_1" sampledSeconds="2419.02" nVehEntered="1" nVehLeft="2" nVehSeen="26" meanSpeed="0.09" meanTimeLoss="92.35" meanOccupancy="64.58" maxOccupancy="66.53" meanMaxJamLengthInVehicles="22.25" meanMaxJamLengthInMeters="154.62" maxJamLengthInVehicles="25" maxJamLengthInMeters="171.75" jamLengthInVehiclesSum="2354" jamLengthInMetersSum="16342.43" meanHaltingDuration="290.52" maxHaltingDuration="491.00" haltingDurationSum="12202.00" meanIntervalHaltingDuration="56.45" maxIntervalHaltingDuration="100.00" intervalHaltingDurationSum="2371.00" startedHalts="17.00" meanVehicleNumber="24.20" maxVehicleNumber="25" />
   <interval begin="23400.00" end="23500.00" id="e2_L40_3_1" sampledSeconds="2490.70" nVehEntered="1" nVehLeft="0" nVehSeen="25" meanSpeed="0.01" meanTimeLoss="99.53" meanOccupancy="66.26" maxOccupancy="66.53" meanMaxJamLengthInVehicles="24.73" meanMaxJamLengthInMeters="169.55" maxJamLengthInVehicles="25" maxJamLengthInMeters="171.03" jamLengthInVehiclesSum="2487" jamLengthInMetersSum="17050.09" meanHaltingDuration="304.92" maxHaltingDuration="591.00" haltingDurationSum="7928.00" meanIntervalHaltingDuration="95.77" maxIntervalHaltingDuration="100.00" intervalHaltingDurationSum="2490.00" startedHalts="3.00" meanVehicleNumber="24.91" maxVehicleNumber="25" />
   <interval begin="23500.00" end="23600.00" id="e2_L40_3_1" sampledSeconds="2500.00" nVehEntered="0" nVehLeft="0" nVehSeen="25" meanSpeed="0.00" meanTimeLoss="100.00" meanOccupancy="66.53" maxOccupancy="66.53" meanMaxJamLengthInVehicles="25.00" meanMaxJamLengthInMeters="171.03" maxJamLengthInVehicles="25" maxJamLengthInMeters="171.03" jamLengthInVehiclesSum="2500" jamLengthInMetersSum="17103.49" meanHaltingDuration="397.64" maxHaltingDuration="691.00" haltingDurationSum="9941.00" meanIntervalHaltingDuration="100.00" maxIntervalHaltingDuration="100.00" intervalHaltingDurationSum="2500.00" startedHalts="0.00" meanVehicleNumber="25.00" maxVehicleNumber="25" />
   <interval begin="23600.00" end="23700.00" id="e2_L40_3_1" sampledSeconds="2500.00" nVehEntered="0" nVehLeft="0" nVehSeen="25" meanSpeed="0.00" meanTimeLoss="100.00" meanOccupancy="66.53" maxOccupancy="66.53" meanMaxJamLengthInVehicles="25.00" meanMaxJamLengthInMeters="171.03" maxJamLengthInVehicles="25" maxJamLengthInMeters="171.03" jamLengthInVehiclesSum="2500" jamLengthInMetersSum="17103.49" meanHaltingDuration="497.64" maxHaltingDuration="791.00" haltingDurationSum="12441.00" meanIntervalHaltingDuration="100.00" maxIntervalHaltingDuration="100.00" intervalHaltingDurationSum="2500.00" startedHalts="0.00" meanVehicleNumber="25.00" maxVehicleNumber="25" />
   <interval begin="23700.00" end="23800.00" id="e2_L40_3_1" sampledSeconds="2500.00" nVehEntered="0" nVehLeft="0" nVehSeen="25" meanSpeed="0.00" meanTimeLoss="100.00" meanOccupancy="66.53" maxOccupancy="66.53" meanMaxJamLengthInVehicles="25.00" meanMaxJamLengthInMeters="171.03" maxJamLengthInVehicles="25" maxJamLengthInMeters="171.03" jamLengthInVehiclesSum="2500" jamLengthInMetersSum="17103.49" meanHaltingDuration="597.64" maxHaltingDuration="891.00" haltingDurationSum="14941.00" meanIntervalHaltingDuration="100.00" maxIntervalHaltingDuration="100.00" intervalHaltingDurationSum="2500.00" startedHalts="0.00" meanVehicleNumber="25.00" maxVehicleNumber="25" />
   <interval begin="23800.00" end="23900.00" id="e2_L40_3_1" sampledSeconds="2500.00" nVehEntered="0" nVehLeft="0" nVehSeen="25" meanSpeed="0.00" meanTimeLoss="100.00" meanOccupancy="66.53" maxOccupancy="66.53" meanMaxJamLengthInVehicles="25.00" meanMaxJamLengthInMeters="171.03" maxJamLengthInVehicles="25" maxJamLengthInMeters="171.03" jamLengthInVehiclesSum="2500" jamLengthInMetersSum="17103.49" meanHaltingDuration="697.64" maxHaltingDuration="991.00" haltingDurationSum="17441.00" meanIntervalHaltingDuration="100.00" maxIntervalHaltingDuration="100.00" intervalHaltingDurationSum="2500.00" startedHalts="0.00" meanVehicleNumber="25.00" maxVehicleNumber="25" />
   <interval begin="23900.00" end="24000.00" id="e2_L40_3_1" sampledSeconds="2500.00" nVehEntered="0" nVehLeft="0" nVehSeen="25" meanSpeed="0.00" meanTimeLoss="100.00" meanOccupancy="66.53" maxOccupancy="66.53" meanMaxJamLengthInVehicles="25.00" meanMaxJamLengthInMeters="171.03" maxJamLengthInVehicles="25" maxJamLengthInMeters="171.03" jamLengthInVehiclesSum="2500" jamLengthInMetersSum="17103.49" meanHaltingDuration="797.64" maxHaltingDuration="1091.00" haltingDurationSum="19941.00" meanIntervalHaltingDuration="100.00" maxIntervalHaltingDuration="100.00" intervalHaltingDurationSum="2500.00" startedHalts="0.00" meanVehicleNumber="25.00" maxVehicleNumber="25" />
   <interval begin="24000.00" end="24100.00" id="e2_L40_3_1" sampledSeconds="2500.00" nVehEntered="0" nVehLeft="0" nVehSeen="25" meanSpeed="0.00" meanTimeLoss="100.00" meanOccupancy="66.53" maxOccupancy="66.53" meanMaxJamLengthInVehicles="25.00" meanMaxJamLengthInMeters="171.03" maxJamLengthInVehicles="25" maxJamLengthInMeters="171.03" jamLengthInVehiclesSum="2500" jamLengthInMetersSum="17103.49" meanHaltingDuration="897.64" maxHaltingDuration="1191.00" haltingDurationSum="22441.00" meanIntervalHaltingDuration="100.00" maxIntervalHaltingDuration="100.00" intervalHaltingDurationSum="2500.00" startedHalts="0.00" meanVehicleNumber="25.00" maxVehicleNumber="25" />
   <interval begin="24100.00" end="24200.00" id="e2_L40_3_1" sampledSeconds="2500.00" nVehEntered="0" nVehLeft="0" nVehSeen="25" meanSpeed="0.00" meanTimeLoss="100.00" meanOccupancy="66.53" maxOccupancy="66.53" meanMaxJamLengthInVehicles="25.00" meanMaxJamLengthInMeters="171.03" maxJamLengthInVehicles="25" maxJamLengthInMeters="171.03" jamLengthInVehiclesSum="2500" jamLengthInMetersSum="17103.49" meanHaltingDuration="997.64" maxHaltingDuration="1291.00" haltingDurationSum="24941.00" meanIntervalHaltingDuration="100.00" maxIntervalHaltingDuration="100.00" intervalHaltingDurationSum="2500.00" startedHalts="0.00" meanVehicleNumber="25.00" maxVehicleNumber="25" />
   <interval begin="24200.00" end="24300.00" id="e2_L40_3_1" sampledSeconds="2500.00" nVehEntered="0" nVehLeft="0" nVehSeen="25" meanSpeed="0.00" meanTimeLoss="100.00" meanOccupancy="66.53" maxOccupancy="66.53" meanMaxJamLengthInVehicles="25.00" meanMaxJamLengthInMeters="171.03" maxJamLengthInVehicles="25" maxJamLengthInMeters="171.03" jamLengthInVehiclesSum="2500" jamLengthInMetersSum="17103.49" meanHaltingDuration="1097.64" maxHaltingDuration="1391.00" haltingDurationSum="27441.00" meanIntervalHaltingDuration="100.00" maxIntervalHaltingDuration="100.00" intervalHaltingDurationSum="2500.00" startedHalts="0.00" meanVehicleNumber="25.00" maxVehicleNumber="25" />
   <interval begin="24300.00" end="24400.00" id="e2_L40_3_1" sampledSeconds="2463.54" nVehEntered="0" nVehLeft="1" nVehSeen="25" meanSpeed="0.06" meanTimeLoss="98.04" meanOccupancy="65.57" maxOccupancy="66.53" meanMaxJamLengthInVehicles="24.01" meanMaxJamLengthInMeters="166.18" maxJamLengthInVehicles="25" maxJamLengthInMeters="173.83" jamLengthInVehiclesSum="2447" jamLengthInMetersSum="16929.07" meanHaltingDuration="934.22" maxHaltingDuration="1491.00" haltingDurationSum="29895.00" meanIntervalHaltingDuration="76.69" maxIntervalHaltingDuration="100.00" intervalHaltingDurationSum="2454.00" startedHalts="7.00" meanVehicleNumber="24.64" maxVehicleNumber="25" />
   <interval begin="24400.00" end="24500.00" id="e2_L40_3_1" sampledSeconds="2458.27" nVehEntered="2" nVehLeft="1" nVehSeen="26" meanSpeed="0.08" meanTimeLoss="93.96" meanOccupancy="65.36" maxOccupancy="66.53" meanMaxJamLengthInVehicles="22.99" meanMaxJamLengthInMeters="158.71" maxJamLengthInVehicles="25" maxJamLengthInMeters="171.03" jamLengthInVehiclesSum="2425" jamLengthInMetersSum="16716.51" meanHaltingDuration="614.68" maxHaltingDuration="1590.00" haltingDurationSum="25202.00" meanIntervalHaltingDuration="59.56" maxIntervalHaltingDuration="100.00" intervalHaltingDurationSum="2442.00" startedHalts="17.00" meanVehicleNumber="24.60" maxVehicleNumber="25" />
   <interval begin="24500.00" end="24600.00" id="e2_L40_3_1" sampledSeconds="2500.00" nVehEntered="0" nVehLeft="0" nVehSeen="25" meanSpeed="0.00" meanTimeLoss="100.00" meanOccupancy="66.53" maxOccupancy="66.53" meanMaxJamLengthInVehicles="25.00" meanMaxJamLengthInMeters="171.03" maxJamLengthInVehicles="25" maxJamLengthInMeters="171.03" jamLengthInVehiclesSum="2500" jamLengthInMetersSum="17103.48" meanHaltingDuration="624.80" maxHaltingDuration="1690.00" haltingDurationSum="15620.00" meanIntervalHaltingDuration="100.00" maxIntervalHaltingDuration="100.00" intervalHaltingDurationSum="2500.00" startedHalts="0.00" meanVehicleNumber="25.00" maxVehicleNumber="25" />
   <interval begin="24600.00" end="24700.00" id="e2_L40_3_1" sampledSeconds="2500.00" nVehEntered="0" nVehLeft="0" nVehSeen="25" meanSpeed="0.00" meanTimeLoss="100.00" meanOccupancy="66.53" maxOccupancy="66.53" meanMaxJamLengthInVehicles="25.00" meanMaxJamLengthInMeters="171.03" maxJamLengthInVehicles="25" maxJamLengthInMeters="171.03" jamLengthInVehiclesSum="2500" jamLengthInMetersSum="17103.48" meanHaltingDuration="724.80" maxHaltingDuration="1790.00" haltingDurationSum="18120.00" meanIntervalHaltingDuration="100.00" maxIntervalHaltingDuration="100.00" intervalHaltingDurationSum="2500.00" startedHalts="0.00" meanVehicleNumber="25.00" maxVehicleNumber="25" />
   <interval begin="24700.00" end="24800.00" id="e2_L40_3_1" sampledSeconds="2482.99" nVehEntered="0" nVehLeft="1" nVehSeen="25" meanSpeed="0.03" meanTimeLoss="99.05" meanOccupancy="65.99" maxOccupancy="66.53" meanMaxJamLengthInVehicles="23.91" meanMaxJamLengthInMeters="163.88" maxJamLengthInVehicles="25" maxJamLengthInMeters="172.77" jamLengthInVehiclesSum="2455" jamLengthInMetersSum="16811.15" meanHaltingDuration="556.40" maxHaltingDuration="1890.00" haltingDurationSum="20587.00" meanIntervalHaltingDuration="66.67" maxIntervalHaltingDuration="100.00" intervalHaltingDurationSum="2467.00" startedHalts="12.00" meanVehicleNumber="24.83" maxVehicleNumber="25" />
   <interval begin="24800.00" end="24900.00" id="e2_L40_3_1" sampledSeconds="2478.29" nVehEntered="1" nVehLeft="0" nVehSeen="25" meanSpeed="0.04" meanTimeLoss="98.78" meanOccupancy="65.85" maxOccupancy="66.53" meanMaxJamLengthInVehicles="24.19" meanMaxJamLengthInMeters="167.16" maxJamLengthInVehicles="25" maxJamLengthInMeters="171.75" jamLengthInVehiclesSum="2463" jamLengthInMetersSum="17007.98" meanHaltingDuration="557.66" maxHaltingDuration="1990.00" haltingDurationSum="17845.00" meanIntervalHaltingDuration="77.25" maxIntervalHaltingDuration="100.00" intervalHaltingDurationSum="2472.00" startedHalts="9.00" meanVehicleNumber="24.79" maxVehicleNumber="25" />
   <interval begin="24900.00" end="25000.00" id="e2_L40_3_1" sampledSeconds="2500.00" nVehEntered="0" nVehLeft="0" nVehSeen="25" meanSpeed="0.00" meanTimeLoss="100.00" meanOccupancy="66.53" maxOccupancy="66.53" meanMaxJamLengthInVehicles="25.00" meanMaxJamLengthInMeters="171.75" maxJamLengthInVehicles="25" maxJamLengthInMeters="171.75" jamLengthInVehiclesSum="2500" jamLengthInMetersSum="17175.19" meanHaltingDuration="424.64" maxHaltingDuration="2090.00" haltingDurationSum="10616.00" meanIntervalHaltingDuration="100.00" maxIntervalHaltingDuration="100.00" intervalHaltingDurationSum="2500.00" startedHalts="0.00" meanVehicleNumber="25.00" maxVehicleNumber="25" />
   <interval begin="25000.00" end="25100.00" id="e2_L40_3_1" sampledSeconds="2500.00" nVehEntered="0" nVehLeft="0" nVehSeen="25" meanSpeed="0.00" meanTimeLoss="100.00" meanOccupancy="66.53" maxOccupancy="66.53" meanMaxJamLengthInVehicles="25.00" meanMaxJamLengthInMeters="171.75" maxJamLengthInVehicles="25" maxJamLengthInMeters="171.75" jamLengthInVehiclesSum="2500" jamLengthInMetersSum="17175.19" meanHaltingDuration="524.64" maxHaltingDuration="2190.00" haltingDurationSum="13116.00" meanIntervalHaltingDuration="100.00" maxIntervalHaltingDuration="100.00" intervalHaltingDurationSum="2500.00" startedHalts="0.00" meanVehicleNumber="25.00" maxVehicleNumber="25" />
   <interval begin="25100.00" end="25200.00" id="e2_L40_3_1" sampledSeconds="2463.26" nVehEntered="0" nVehLeft="1" nVehSeen="25" meanSpeed="0.05" meanTimeLoss="98.16" meanOccupancy="65.66" maxOccupancy="66.53" meanMaxJamLengthInVehicles="24.22" meanMaxJamLengthInMeters="168.15" maxJamLengthInVehicles="25" maxJamLengthInMeters="172.03" jamLengthInVehiclesSum="2448" jamLengthInMetersSum="16983.10" meanHaltingDuration="486.56" maxHaltingDuration="2290.00" haltingDurationSum="15570.00" meanIntervalHaltingDuration="76.69" maxIntervalHaltingDuration="100.00" intervalHaltingDurationSum="2454.00" startedHalts="8.00" meanVehicleNumber="24.64" maxVehicleNumber="25" />
   <interval begin="25200.00" end="25300.00" id="e2_L40_3_1" sampledSeconds="2496.82" nVehEntered="1" nVehLeft="0" nVehSeen="25" meanSpeed="0.00" meanTimeLoss="99.85" meanOccupancy="65.47" maxOccupancy="65.52" meanMaxJamLengthInVehicles="24.96" meanMaxJamLengthInMeters="171.14" maxJamLengthInVehicles="25" maxJamLengthInMeters="171.25" jamLengthInVehiclesSum="2496" jamLengthInMetersSum="17114.17" meanHaltingDuration="617.20" maxHaltingDuration="2390.00" haltingDurationSum="15430.00" meanIntervalHaltingDuration="99.88" maxIntervalHaltingDuration="100.00" intervalHaltingDurationSum="2497.00" startedHalts="1.00" meanVehicleNumber="24.97" maxVehicleNumber="25" />
   <interval begin="25300.00" end="25400.00" id="e2_L40_3_1" sampledSeconds="2500.00" nVehEntered="0" nVehLeft="0" nVehSeen="25" meanSpeed="0.00" meanTimeLoss="100.00" meanOccupancy="65.52" maxOccupancy="65.52" meanMaxJamLengthInVehicles="25.00" meanMaxJamLengthInMeters="171.25" maxJamLengthInVehicles="25" maxJamLengthInMeters="171.25" jamLengthInVehiclesSum="2500" jamLengthInMetersSum="17125.09" meanHaltingDuration="717.20" maxHaltingDuration="2490.00" haltingDurationSum="17930.00" meanIntervalHaltingDuration="100.00" maxIntervalHaltingDuration="100.00" intervalHaltingDurationSum="2500.00" startedHalts="0.00" meanVehicleNumber="25.00" maxVehicleNumber="25" />
   <interval begin="25400.00" end="25500.00" id="e2_L40_3_1" sampledSeconds="2500.00" nVehEntered="0" nVehLeft="0" nVehSeen="25" meanSpeed="0.00" meanTimeLoss="100.00" meanOccupancy="65.52" maxOccupancy="65.52" meanMaxJamLengthInVehicles="25.00" meanMaxJamLengthInMeters="171.25" maxJamLengthInVehicles="25" maxJamLengthInMeters="171.25" jamLengthInVehiclesSum="2500" jamLengthInMetersSum="17125.09" meanHaltingDuration="817.20" maxHaltingDuration="2590.00" haltingDurationSum="20430.00" meanIntervalHaltingDuration="100.00" maxIntervalHaltingDuration="100.00" intervalHaltingDurationSum="2500.00" startedHalts="0.00" meanVehicleNumber="25.00" maxVehicleNumber="25" />
   <interval begin="25500.00" end="25600.00" id="e2_L40_3_1" sampledSeconds="2500.00" nVehEntered="0" nVehLeft="0" nVehSeen="25" meanSpeed="0.00" meanTimeLoss="100.00" meanOccupancy="65.52" maxOccupancy="65.52" meanMaxJamLengthInVehicles="25.00" meanMaxJamLengthInMeters="171.25" maxJamLengthInVehicles="25" maxJamLengthInMeters="171.25" jamLengthInVehiclesSum="2500" jamLengthInMetersSum="17125.09" meanHaltingDuration="917.20" maxHaltingDuration="2690.00" haltingDurationSum="22930.00" meanIntervalHaltingDuration="100.00" maxIntervalHaltingDuration="100.00" intervalHaltingDurationSum="2500.00" startedHalts="0.00" meanVehicleNumber="25.00" maxVehicleNumber="25" />
   <interval begin="25600.00" end="25700.00" id="e2_L40_3_1" sampledSeconds="2500.00" nVehEntered="0" nVehLeft="0" nVehSeen="25" meanSpeed="0.00" meanTimeLoss="100.00" meanOccupancy="65.52" maxOccupancy="65.52" meanMaxJamLengthInVehicles="25.00" meanMaxJamLengthInMeters="171.25" maxJamLengthInVehicles="25" maxJamLengthInMeters="171.25" jamLengthInVehiclesSum="2500" jamLengthInMetersSum="17125.09" meanHaltingDuration="1017.20" maxHaltingDuration="2790.00" haltingDurationSum="25430.00" meanIntervalHaltingDuration="100.00" maxIntervalHaltingDuration="100.00" intervalHaltingDurationSum="2500.00" startedHalts="0.00" meanVehicleNumber="25.00" maxVehicleNumber="25" />
   <interval begin="25700.00" end="25800.00" id="e2_L40_3_1" sampledSeconds="2482.43" nVehEntered="1" nVehLeft="1" nVehSeen="26" meanSpeed="0.03" meanTimeLoss="95.25" meanOccupancy="65.06" maxOccupancy="65.57" meanMaxJamLengthInVehicles="24.25" meanMaxJamLengthInMeters="166.25" maxJamLengthInVehicles="25" maxJamLengthInMeters="173.55" jamLengthInVehiclesSum="2460" jamLengthInMetersSum="16844.00" meanHaltingDuration="820.56" maxHaltingDuration="2890.00" haltingDurationSum="27899.00" meanIntervalHaltingDuration="72.62" maxIntervalHaltingDuration="100.00" intervalHaltingDurationSum="2469.00" startedHalts="9.00" meanVehicleNumber="24.83" maxVehicleNumber="25" />