<?xml version="1.0" encoding="UTF-8"?>

<!-- generated on Sun Feb 17 15:57:00 2019 by 
<configuration xmlns:xsi="http://www.w3.org/2001/XMLSchema-instance" xsi:noNamespaceSchemaLocation="http://sumo.dlr.de/xsd/Configuration.xsd">

    <input>
        <net-file value="/home/sda/Documents/sumo-sathorn-ray/models/sathorn-morning/sathorn_w_fixed_20160404.net.xml"/>
        <route-files value="/home/sda/Documents/sumo-sathorn-ray/models/sathorn-morning/Great-route/sathorn_w_20160422edit2.rou.xml"/>
        <additional-files value="/home/sda/Documents/sumo-sathorn-ray/models/sathorn-morning/sathon_wide_tls_20160418_edited.add.xml,/home/sda/Documents/sumo-sathorn-ray/detectors/sathorn_w_detectors.add.xml"/>
    </input>

    <time>
        <begin value="21600"/>
        <end value="32400"/>
        <step-length value="1"/>
    </time>

    <processing>
        <no-internal-links value="true"/>
        <ignore-junction-blocker value="-1"/>
        <time-to-teleport value="-1"/>
        <eager-insert value="true"/>
        <time-to-impatience value="300"/>
    </processing>

    <report>
        <no-warnings value="true"/>
    </report>

    <random_number>
        <random value="false"/>
        <seed value="20"/>
    </random_number>

    <gui_only>
        <gui-settings-file value="/home/sda/Documents/sumo-sathorn-ray/gui-settings/gui-settings-file-surasak.xml"/>
        <quit-on-end value="true"/>
        <start value="true"/>
        <tracker-interval value="1"/>
    </gui_only>

</configuration>
-->

<detector xmlns:xsi="http://www.w3.org/2001/XMLSchema-instance" xsi:noNamespaceSchemaLocation="http://sumo.dlr.de/xsd/det_e2_file.xsd">
   <interval begin="21600.00" end="21700.00" id="e2_L40279_2_3" sampledSeconds="0.00" nVehEntered="0" nVehLeft="0" nVehSeen="0" meanSpeed="-1.00" meanTimeLoss="-1.00" meanOccupancy="0.00" maxOccupancy="0.00" meanMaxJamLengthInVehicles="0.00" meanMaxJamLengthInMeters="0.00" maxJamLengthInVehicles="0" maxJamLengthInMeters="0.00" jamLengthInVehiclesSum="0" jamLengthInMetersSum="0.00" meanHaltingDuration="0.00" maxHaltingDuration="0.00" haltingDurationSum="0.00" meanIntervalHaltingDuration="0.00" maxIntervalHaltingDuration="0.00" intervalHaltingDurationSum="0.00" startedHalts="0.00" meanVehicleNumber="0.00" maxVehicleNumber="0" />
   <interval begin="21700.00" end="21800.00" id="e2_L40279_2_3" sampledSeconds="0.00" nVehEntered="0" nVehLeft="0" nVehSeen="0" meanSpeed="-1.00" meanTimeLoss="-1.00" meanOccupancy="0.00" maxOccupancy="0.00" meanMaxJamLengthInVehicles="0.00" meanMaxJamLengthInMeters="0.00" maxJamLengthInVehicles="0" maxJamLengthInMeters="0.00" jamLengthInVehiclesSum="0" jamLengthInMetersSum="0.00" meanHaltingDuration="0.00" maxHaltingDuration="0.00" haltingDurationSum="0.00" meanIntervalHaltingDuration="0.00" maxIntervalHaltingDuration="0.00" intervalHaltingDurationSum="0.00" startedHalts="0.00" meanVehicleNumber="0.00" maxVehicleNumber="0" />
   <interval begin="21800.00" end="21900.00" id="e2_L40279_2_3" sampledSeconds="0.00" nVehEntered="0" nVehLeft="0" nVehSeen="0" meanSpeed="-1.00" meanTimeLoss="-1.00" meanOccupancy="0.00" maxOccupancy="0.00" meanMaxJamLengthInVehicles="0.00" meanMaxJamLengthInMeters="0.00" maxJamLengthInVehicles="0" maxJamLengthInMeters="0.00" jamLengthInVehiclesSum="0" jamLengthInMetersSum="0.00" meanHaltingDuration="0.00" maxHaltingDuration="0.00" haltingDurationSum="0.00" meanIntervalHaltingDuration="0.00" maxIntervalHaltingDuration="0.00" intervalHaltingDurationSum="0.00" startedHalts="0.00" meanVehicleNumber="0.00" maxVehicleNumber="0" />
   <interval begin="21900.00" end="22000.00" id="e2_L40279_2_3" sampledSeconds="31.36" nVehEntered="4" nVehLeft="4" nVehSeen="4" meanSpeed="4.57" meanTimeLoss="4.97" meanOccupancy="0.71" maxOccupancy="5.08" meanMaxJamLengthInVehicles="0.03" meanMaxJamLengthInMeters="0.13" maxJamLengthInVehicles="1" maxJamLengthInMeters="4.62" jamLengthInVehiclesSum="3" jamLengthInMetersSum="12.67" meanHaltingDuration="1.75" maxHaltingDuration="3.00" haltingDurationSum="7.00" meanIntervalHaltingDuration="1.75" maxIntervalHaltingDuration="3.00" intervalHaltingDurationSum="7.00" startedHalts="4.00" meanVehicleNumber="0.32" maxVehicleNumber="2" />
   <interval begin="22000.00" end="22100.00" id="e2_L40279_2_3" sampledSeconds="76.42" nVehEntered="8" nVehLeft="8" nVehSeen="8" meanSpeed="5.58" meanTimeLoss="5.29" meanOccupancy="1.79" maxOccupancy="7.62" meanMaxJamLengthInVehicles="0.03" meanMaxJamLengthInMeters="0.13" maxJamLengthInVehicles="1" maxJamLengthInMeters="4.62" jamLengthInVehiclesSum="3" jamLengthInMetersSum="12.58" meanHaltingDuration="1.75" maxHaltingDuration="2.00" haltingDurationSum="7.00" meanIntervalHaltingDuration="1.75" maxIntervalHaltingDuration="2.00" intervalHaltingDurationSum="7.00" startedHalts="4.00" meanVehicleNumber="0.79" maxVehicleNumber="3" />
   <interval begin="22100.00" end="22200.00" id="e2_L40279_2_3" sampledSeconds="132.87" nVehEntered="14" nVehLeft="13" nVehSeen="14" meanSpeed="4.84" meanTimeLoss="5.80" meanOccupancy="3.13" maxOccupancy="7.62" meanMaxJamLengthInVehicles="0.09" meanMaxJamLengthInMeters="0.45" maxJamLengthInVehicles="2" maxJamLengthInMeters="13.10" jamLengthInVehiclesSum="9" jamLengthInMetersSum="45.44" meanHaltingDuration="1.70" maxHaltingDuration="3.00" haltingDurationSum="17.00" meanIntervalHaltingDuration="1.70" maxIntervalHaltingDuration="3.00" intervalHaltingDurationSum="17.00" startedHalts="11.00" meanVehicleNumber="1.37" maxVehicleNumber="3" />
   <interval begin="22200.00" end="22300.00" id="e2_L40279_2_3" sampledSeconds="52.51" nVehEntered="9" nVehLeft="10" nVehSeen="10" meanSpeed="6.12" meanTimeLoss="2.68" meanOccupancy="1.16" maxOccupancy="5.08" meanMaxJamLengthInVehicles="0.04" meanMaxJamLengthInMeters="0.15" maxJamLengthInVehicles="1" maxJamLengthInMeters="4.62" jamLengthInVehiclesSum="4" jamLengthInMetersSum="14.75" meanHaltingDuration="3.00" maxHaltingDuration="3.00" haltingDurationSum="3.00" meanIntervalHaltingDuration="3.00" maxIntervalHaltingDuration="3.00" intervalHaltingDurationSum="3.00" startedHalts="2.00" meanVehicleNumber="0.56" maxVehicleNumber="2" />
   <interval begin="22300.00" end="22400.00" id="e2_L40279_2_3" sampledSeconds="76.77" nVehEntered="9" nVehLeft="8" nVehSeen="9" meanSpeed="4.61" meanTimeLoss="5.38" meanOccupancy="1.82" maxOccupancy="7.62" meanMaxJamLengthInVehicles="0.05" meanMaxJamLengthInMeters="0.21" maxJamLengthInVehicles="1" maxJamLengthInMeters="4.62" jamLengthInVehiclesSum="5" jamLengthInMetersSum="21.35" meanHaltingDuration="1.33" maxHaltingDuration="2.00" haltingDurationSum="8.00" meanIntervalHaltingDuration="1.33" maxIntervalHaltingDuration="2.00" intervalHaltingDurationSum="8.00" startedHalts="7.00" meanVehicleNumber="0.79" maxVehicleNumber="3" />
   <interval begin="22400.00" end="22500.00" id="e2_L40279_2_3" sampledSeconds="17.00" nVehEntered="2" nVehLeft="3" nVehSeen="3" meanSpeed="5.50" meanTimeLoss="3.17" meanOccupancy="0.40" maxOccupancy="2.54" meanMaxJamLengthInVehicles="0.01" meanMaxJamLengthInMeters="0.05" maxJamLengthInVehicles="1" maxJamLengthInMeters="4.62" jamLengthInVehiclesSum="1" jamLengthInMetersSum="4.62" meanHaltingDuration="1.50" maxHaltingDuration="2.00" haltingDurationSum="3.00" meanIntervalHaltingDuration="1.50" maxIntervalHaltingDuration="2.00" intervalHaltingDurationSum="3.00" startedHalts="2.00" meanVehicleNumber="0.17" maxVehicleNumber="1" />
   <interval begin="22500.00" end="22600.00" id="e2_L40279_2_3" sampledSeconds="65.84" nVehEntered="10" nVehLeft="10" nVehSeen="10" meanSpeed="5.77" meanTimeLoss="3.54" meanOccupancy="1.52" maxOccupancy="5.08" meanMaxJamLengthInVehicles="0.02" meanMaxJamLengthInMeters="0.09" maxJamLengthInVehicles="1" maxJamLengthInMeters="4.62" jamLengthInVehiclesSum="2" jamLengthInMetersSum="8.85" meanHaltingDuration="1.50" maxHaltingDuration="2.00" haltingDurationSum="3.00" meanIntervalHaltingDuration="1.50" maxIntervalHaltingDuration="2.00" intervalHaltingDurationSum="3.00" startedHalts="3.00" meanVehicleNumber="0.69" maxVehicleNumber="2" />
   <interval begin="22600.00" end="22700.00" id="e2_L40279_2_3" sampledSeconds="88.59" nVehEntered="11" nVehLeft="11" nVehSeen="11" meanSpeed="4.82" meanTimeLoss="4.95" meanOccupancy="2.02" maxOccupancy="5.08" meanMaxJamLengthInVehicles="0.06" meanMaxJamLengthInMeters="0.27" maxJamLengthInVehicles="1" maxJamLengthInMeters="4.62" jamLengthInVehiclesSum="6" jamLengthInMetersSum="26.52" meanHaltingDuration="1.86" maxHaltingDuration="3.00" haltingDurationSum="13.00" meanIntervalHaltingDuration="1.86" maxIntervalHaltingDuration="3.00" intervalHaltingDurationSum="13.00" startedHalts="7.00" meanVehicleNumber="0.93" maxVehicleNumber="2" />
   <interval begin="22700.00" end="22800.00" id="e2_L40279_2_3" sampledSeconds="20.35" nVehEntered="5" nVehLeft="5" nVehSeen="5" meanSpeed="8.16" meanTimeLoss="1.41" meanOccupancy="0.42" maxOccupancy="2.54" meanMaxJamLengthInVehicles="0.00" meanMaxJamLengthInMeters="0.00" maxJamLengthInVehicles="0" maxJamLengthInMeters="0.00" jamLengthInVehiclesSum="0" jamLengthInMetersSum="0.00" meanHaltingDuration="0.00" maxHaltingDuration="0.00" haltingDurationSum="0.00" meanIntervalHaltingDuration="0.00" maxIntervalHaltingDuration="0.00" intervalHaltingDurationSum="0.00" startedHalts="0.00" meanVehicleNumber="0.23" maxVehicleNumber="1" />
   <interval begin="22800.00" end="22900.00" id="e2_L40279_2_3" sampledSeconds="0.00" nVehEntered="0" nVehLeft="0" nVehSeen="0" meanSpeed="-1.00" meanTimeLoss="-1.00" meanOccupancy="0.00" maxOccupancy="0.00" meanMaxJamLengthInVehicles="0.00" meanMaxJamLengthInMeters="0.00" maxJamLengthInVehicles="0" maxJamLengthInMeters="0.00" jamLengthInVehiclesSum="0" jamLengthInMetersSum="0.00" meanHaltingDuration="0.00" maxHaltingDuration="