<?xml version="1.0" encoding="UTF-8"?>

<!-- generated on Sun Feb 17 15:57:00 2019 by 
<configuration xmlns:xsi="http://www.w3.org/2001/XMLSchema-instance" xsi:noNamespaceSchemaLocation="http://sumo.dlr.de/xsd/Configuration.xsd">

    <input>
        <net-file value="/home/sda/Documents/sumo-sathorn-ray/models/sathorn-morning/sathorn_w_fixed_20160404.net.xml"/>
        <route-files value="/home/sda/Documents/sumo-sathorn-ray/models/sathorn-morning/Great-route/sathorn_w_20160422edit2.rou.xml"/>
        <additional-files value="/home/sda/Documents/sumo-sathorn-ray/models/sathorn-morning/sathon_wide_tls_20160418_edited.add.xml,/home/sda/Documents/sumo-sathorn-ray/detectors/sathorn_w_detectors.add.xml"/>
    </input>

    <time>
        <begin value="21600"/>
        <end value="32400"/>
        <step-length value="1"/>
    </time>

    <processing>
        <no-internal-links value="true"/>
        <ignore-junction-blocker value="-1"/>
        <time-to-teleport value="-1"/>
        <eager-insert value="true"/>
        <time-to-impatience value="300"/>
    </processing>

    <report>
        <no-warnings value="true"/>
    </report>

    <random_number>
        <random value="false"/>
        <seed value="20"/>
    </random_number>

    <gui_only>
        <gui-settings-file value="/home/sda/Documents/sumo-sathorn-ray/gui-settings/gui-settings-file-surasak.xml"/>
        <quit-on-end value="true"/>
        <start value="true"/>
        <tracker-interval value="1"/>
    </gui_only>

</configuration>
-->

<detector xmlns:xsi="http://www.w3.org/2001/XMLSchema-instance" xsi:noNamespaceSchemaLocation="http://sumo.dlr.de/xsd/det_e2_file.xsd">
   <interval begin="21600.00" end="21700.00" id="e2_L193#2_3_1" sampledSeconds="0.00" nVehEntered="0" nVehLeft="0" nVehSeen="0" meanSpeed="-1.00" meanTimeLoss="-1.00" meanOccupancy="0.00" maxOccupancy="0.00" meanMaxJamLengthInVehicles="0.00" meanMaxJamLengthInMeters="0.00" maxJamLengthInVehicles="0" maxJamLengthInMeters="0.00" jamLengthInVehiclesSum="0" jamLengthInMetersSum="0.00" meanHaltingDuration="0.00" maxHaltingDuration="0.00" haltingDurationSum="0.00" meanIntervalHaltingDuration="0.00" maxIntervalHaltingDuration="0.00" intervalHaltingDurationSum="0.00" startedHalts="0.00" meanVehicleNumber="0.00" maxVehicleNumber="0" />
   <interval begin="21700.00" end="21800.00" id="e2_L193#2_3_1" sampledSeconds="0.00" nVehEntered="0" nVehLeft="0" nVehSeen="0" meanSpeed="-1.00" meanTimeLoss="-1.00" meanOccupancy="0.00" maxOccupancy="0.00" meanMaxJamLengthInVehicles="0.00" meanMaxJamLengthInMeters="0.00" maxJamLengthInVehicles="0" maxJamLengthInMeters="0.00" jamLengthInVehiclesSum="0" jamLengthInMetersSum="0.00" meanHaltingDuration="0.00" maxHaltingDuration="0.00" haltingDurationSum="0.00" meanIntervalHaltingDuration="0.00" maxIntervalHaltingDuration="0.00" intervalHaltingDurationSum="0.00" startedHalts="0.00" meanVehicleNumber="0.00" maxVehicleNumber="0" />
   <interval begin="21800.00" end="21900.00" id="e2_L193#2_3_1" sampledSeconds="18.44" nVehEntered="5" nVehLeft="5" nVehSeen="5" meanSpeed="12.06" meanTimeLoss="0.13" meanOccupancy="0.93" maxOccupancy="9.38" meanMaxJamLengthInVehicles="0.00" meanMaxJamLengthInMeters="0.00" maxJamLengthInVehicles="0" maxJamLengthInMeters="0.00" jamLengthInVehiclesSum="0" jamLengthInMetersSum="0.00" meanHaltingDuration="0.00" maxHaltingDuration="0.00" haltingDurationSum="0.00" meanIntervalHaltingDuration="0.00" maxIntervalHaltingDuration="0.00" intervalHaltingDurationSum="0.00" startedHalts="0.00" meanVehicleNumber="0.23" maxVehicleNumber="2" />
   <interval begin="21900.00" end="22000.00" id="e2_L193#2_3_1" sampledSeconds="24.95" nVehEntered="4" nVehLeft="4" nVehSeen="4" meanSpeed="11.81" meanTimeLoss="0.34" meanOccupancy="1.19" maxOccupancy="14.06" meanMaxJamLengthInVehicles="0.00" meanMaxJamLengthInMeters="0.00" maxJamLengthInVehicles="0" maxJamLengthInMeters="0.00" jamLengthInVehiclesSum="0" jamLengthInMetersSum="0.00" meanHaltingDuration="0.00" maxHaltingDuration="0.00" haltingDurationSum="0.00" meanIntervalHaltingDuration="0.00" maxIntervalHaltingDuration="0.00" intervalHaltingDurationSum="0.00" startedHalts="0.00" meanVehicleNumber="0.28" maxVehicleNumber="3" />
   <interval begin="22000.00" end="22100.00" id="e2_L193#2_3_1" sampledSeconds="55.46" nVehEntered="10" nVehLeft="6" nVehSeen="10" meanSpeed="11.80" meanTimeLoss="0.30" meanOccupancy="2.69" maxOccupancy="23.44" meanMaxJamLengthInVehicles="0.00" meanMaxJamLengthInMeters="0.00" maxJamLengthInVehicles="0" maxJamLengthInMeters="0.00" jamLengthInVehiclesSum="0" jamLengthInMetersSum="0.00" meanHaltingDuration="0.00" maxHaltingDuration="0.00" haltingDurationSum="0.00" meanIntervalHaltingDuration="0.00" maxIntervalHaltingDuration="0.00" intervalHaltingDurationSum="0.00" startedHalts="0.00" meanVehicleNumber="0.63" maxVehicleNumber="5" />
   <interval begin="22100.00" end="22200.00" id="e2_L193#2_3_1" sampledSeconds="79.40" nVehEntered="11" nVehLeft="15" nVehSeen="15" meanSpeed="11.77" meanTimeLoss="0.31" meanOccupancy="3.61" maxOccupancy="21.62" meanMaxJamLengthInVehicles="0.00" meanMaxJamLengthInMeters="0.00" maxJamLengthInVehicles="0" maxJamLengthInMeters="0.00" jamLengthInVehiclesSum="0" jamLengthInMetersSum="0.00" meanHaltingDuration="0.00" maxHaltingDuration="0.00" haltingDurationSum="0.00" meanIntervalHaltingDuration="0.00" maxIntervalHaltingDuration="0.00" intervalHaltingDurationSum="0.00" startedHalts="0.00" meanVehicleNumber="0.92" maxVehicleNumber="5" />
   <interval begin="22200.00" end="22300.00" id="e2_L193#2_3_1" sampledSeconds="119.43" nVehEntered="15" nVehLeft="12" nVehSeen="15" meanSpeed="10.59" meanTimeLoss="1.22" meanOccupancy="5.42" maxOccupancy="19.37" meanMaxJamLengthInVehicles="0.00" meanMaxJamLengthInMeters="0.00" maxJamLengthInVehicles="0" maxJamLengthInMeters="0.00" jamLengthInVehiclesSum="0" jamLengthInMetersSum="0.00" meanHaltingDuration="0.00" maxHaltingDuration="0.00" haltingDurationSum="0.00" meanIntervalHaltingDuration="0.00" maxIntervalHaltingDuration="0.00" intervalHaltingDurationSum="0.00" startedHalts="0.00" meanVehicleNumber="1.27" maxVehicleNumber="5" />
   <interval begin="22300.00" end="22400.00" id="e2_L193#2_3_1" sampledSeconds="510.75" nVehEntered="11" nVehLeft="5" nVehSeen="14" meanSpeed="0.82" meanTimeLoss="34.07" meanOccupancy="23.60" maxOccupancy="42.19" meanMaxJamLengthInVehicles="4.08" meanMaxJamLengthInMeters="27.09" maxJamLengthInVehicles="9" maxJamLengthInMeters="62.99" jamLengthInVehiclesSum="410" jamLengthInMetersSum="2718.50" meanHaltingDuration="22.56" maxHaltingDuration="79.00" haltingDurationSum="361.00" meanIntervalHaltingDuration="22.56" maxIntervalHaltingDuration="79.00" intervalHaltingDurationSum="361.00" startedHalts="19.00" meanVehicleNumber="5.13" maxVehicleNumber="9" />
   <interval begin="22400.00" end="22500.00" id="e2_L193#2_3_1" sampledSeconds="1425.26" nVehEntered="6" nVehLeft="0" nVehSeen="15" meanSpeed="0.08" meanTimeLoss="94.41" meanOccupancy="63.61" maxOccupancy="66.14" meanMaxJamLengthInVehicles="14.01" meanMaxJamLengthInMeters="92.45" maxJamLengthInVehicles="15" maxJamLengthInMeters="98.39" jamLengthInVehiclesSum="1401" jamLengthInMetersSum="9245.46" meanHaltingDuration="116.67" maxHaltingDuration="179.00" haltingDurationSum="1750.00" meanIntervalHaltingDuration="93.80" maxIntervalHaltingDuration="100.00" intervalHaltingDurationSum="1407.00" startedHalts="6.00" meanVehicleNumber="14.29" maxVehicleNumber="15" />
   <interval begin="22500.00" end="22600.00" id="e2_L193#2_3_1" sampledSeconds="1500.00" nVehEntered="0" nVehLeft="0" nVehSeen="15" meanSpeed="0.00" meanTimeLoss="100.00" meanOccupancy="66.14" maxOccupancy="66.14" meanMaxJamLengthInVehicles="15.00" meanMaxJamLengthInMeters="98.39" maxJamLengthInVehicles="15" maxJamLengthInMeters="98.39" jamLengthInVehiclesSum="1500" jamLengthInMetersSum="9838.65" meanHaltingDuration="216.67" maxHaltingDuration="279.00" haltingDurationSum="3250.00" meanIntervalHaltingDuration="100.00" maxIntervalHaltingDuration="100.00" intervalHaltingDurationSum="1500.00" startedHalts="0.00" meanVehicleNumber="15.00" maxVehicleNumber="15" />
   <interval begin="22600.00" end="22700.00" id="e2_L193#2_3_1" sampledSeconds="1500.00" nVehEntered="0" nVehLeft="0" nVehSeen="15" meanSpeed="0.00" meanTimeLoss="100.00" meanOccupancy="66.14" maxOccupancy="66.14" meanMaxJamLengthInVehicles="15.00" meanMaxJamLengthInMeters="98.39" maxJamLengthInVehicles="15" maxJamLengthInMeters="98.39" jamLengthInVehiclesSum="1500" jamLengthInMetersSum="9838.65" meanHaltingDuration="316.67" maxHaltingDuration="379.00" haltingDurationSum="4750.00" meanIntervalHaltingDuration="100.00" maxIntervalHaltingDuration="100.00" intervalHaltingDurationSum="1500.00" startedHalts="0.00" meanVehicleNumber="15.00" maxVehicleNumber="15" />
   <interval begin="22700.00" end="22800.00" id="e2_L193#2_3_1" sampledSeconds="1500.00" nVehEntered="0" nVehLeft="0" nVehSeen="15" meanSpeed="0.00" meanTimeLoss="100.00" meanOccupancy="66.14" maxOccupancy="66.14" meanMaxJamLengthInVehicles="15.00" meanMaxJamLengthInMeters="98.39" maxJamLengthInVehicles="15" maxJamLengthInMeters="98.39" jamLengthInVehiclesSum="1500" jamLengthInMetersSum="9838.65" meanHaltingDuration="416.67" maxHaltingDuration="479.00" haltingDurationSum="6250.00" meanIntervalHaltingDuration="100.00" maxIntervalHaltingDuration="100.00" intervalHaltingDurationSum="1500.00" startedHalts="0.00" meanVehicleNumber="15.00" maxVehicleNumber="15" />
   <interval begin="22800.00" end="22900.00" id="e2_L193#2_3_1" sampledSeconds="1500.00" nVehEntered="0" nVehLeft="0" nVehSeen="15" meanSpeed="0.00" meanTimeLoss="100.00" meanOccupancy="66.14" maxOccupancy="66.14" meanMaxJamLengthInVehicles="15.00" meanMaxJamLengthInMeters="98.39" maxJamLengthInVehicles="15" maxJamLengthInMeters="98.39" jamLengthInVehiclesSum="1500" jamLengthInMetersSum="9838.65" meanHaltingDuration="516.67" maxHaltingDuration="579.00" haltingDurationSum="7750.00" meanIntervalHaltingDuration="100.00" maxIntervalHaltingDuration="100.00" intervalHaltingDurationSum="1500.00" startedHalts="0.00" meanVehicleNumber="15.00" maxVehicleNumber="15" />
   <interval begin="22900.00" end="23000.00" id="e2_L193#2_3_1" sampledSeconds="1500.00" nVehEntered="0" nVehLeft="0" nVehSeen="15" meanSpeed="0.00" meanTimeLoss="100.00" meanOccupancy="66.14" maxOccupancy="66.14" meanMaxJamLengthInVehicles="15.00" meanMaxJamLengthInMeters="98.39" maxJamLengthInVehicles="15" maxJamLengthInMeters="98.39" jamLengthInVehiclesSum="1500" jamLengthInMetersSum="9838.65" meanHaltingDuration="616.67" maxHaltingDuration="679.00" haltingDurationSum="9250.00" meanIntervalHaltingDuration="100.00" maxIntervalHaltingDuration="100.00" intervalHaltingDurationSum="1500.00" startedHalts="0.00" meanVehicleNumber="15.00" maxVehicleNumber="15" />
   <interval begin="23000.00" end="23100.00" id="e2_L193#2_3_1" sampledSeconds="1500.00" nVehEntered="0" nVehLeft="0" nVehSeen="15" meanSpeed="0.00" meanTimeLoss="100.00" meanOccupancy="66.14" maxOccupancy="66.14" meanMaxJamLengthInVehicles="15.00" meanMaxJamLengthInMeters="98.39" maxJamLengthInVehicles="15" maxJamLengthInMeters="98.39" jamLengthInVehiclesSum="1500" jamLengthInMetersSum="9838.65" meanHaltingDuration="716.67" maxHaltingDuration="779.00" haltingDurationSum="10750.00" meanIntervalHaltingDuration="100.00" maxIntervalHaltingDuration="100.00" intervalHaltingDurationSum="1500.00" startedHalts="0.00" meanVehicleNumber="15.00" maxVehicleNumber="15" />
   <interval begin="23100.00" end="23200.00" id="e2_L193#2_3_1" sampledSeconds="1500.00" nVehEntered="0" nVehLeft="0" nVehSeen="15" meanSpeed="0.00" meanTimeLoss="100.00" meanOccupancy="66.14" maxOccupancy="66.14" meanMaxJamLengthInVehicles="15.00" meanMaxJamLengthInMeters="98.39" maxJamLengthInVehicles="15" maxJamLengthInMeters="98.39" jamLengthInVehiclesSum="1500" jamLengthInMetersSum="9838.65" meanHaltingDuration="816.67" maxHaltingDuration="879.00" haltingDurationSum="12250.00" meanIntervalHaltingDuration="100.00" maxIntervalHaltingDuration="100.00" intervalHaltingDurationSum="1500.00" startedHalts="0.00" meanVehicleNumber="15.00" maxVehicleNumber="15" />
   <interval begin="23200.00" end="23300.00" id="e2_L193#2_3_1" sampledSeconds="1500.00" nVehEntered="0" nVehLeft="0" nVehSeen="15" meanSpeed="0.00" meanTimeLoss="100.00" meanOccupancy="66.14" maxOccupancy="66.14" meanMaxJamLengthInVehicles="15.00" meanMaxJamLengthInMeters="98.39" maxJamLengthInVehicles="15" maxJamLengthInMeters="98.39" jamLengthInVehiclesSum="1500" jamLengthInMetersSum="9838.65" meanHaltingDuration="916.67" maxHaltingDuration="979.00" haltingDurationSum="13750.00" meanIntervalHaltingDuration="100.00" maxIntervalHaltingDuration="100.00" intervalHaltingDurationSum="1500.00" startedHalts="0.00" meanVehicleNumber="15.00" maxVehicleNumber="15" />
   <interval begin="23300.00" end="23400.00" id="e2_L193#2_3_1" sampledSeconds="1500.00" nVehEntered="0" nVehLeft="0" nVehSeen="15" meanSpeed="0.00" meanTimeLoss="100.00" meanOccupancy="66.14" maxOccupancy="66.14" meanMaxJamLengthInVehicles="15.00" meanMaxJamLengthInMeters="98.39" maxJamLengthInVehicles="15" maxJamLengthInMeters="98.39" jamLengthInVehiclesSum="1500" jamLengthInMetersSum="9838.65" meanHaltingDuration="1016.67" maxHaltingDuration="1079.00" haltingDurationSum="15250.00" meanIntervalHaltingDuration="100.00" maxIntervalHaltingDuration="100.00" intervalHaltingDurationSum="1500.00" startedHalts="0.00" meanVehicleNumber="15.00" maxVehicleNumber="15" />
   <interval begin="23400.00" end="23500.00" id="e2_L193#2_3_1" sampledSeconds="1489.76" nVehEntered="0" nVehLeft="2" nVehSeen="15" meanSpeed="0.04" meanTimeLoss="99.03" meanOccupancy="65.48" maxOccupancy="66.14" meanMaxJamLengthInVehicles="14.61" meanMaxJamLengthInMeters="95.80" maxJamLengthInVehicles="15" maxJamLengthInMeters="98.73" jamLengthInVehiclesSum="1470" jamLengthInMetersSum="9628.92" meanHaltingDuration="777.85" maxHaltingDuration="1170.00" haltingDurationSum="15557.00" meanIntervalHaltingDuration="69.30" maxIntervalHaltingDuration="100.00" intervalHaltingDurationSum="1386.00" startedHalts="6.00" meanVehicleNumber="14.90" maxVehicleNumber="15" />
   <interval begin="23500.00" end="23600.00" id="e2_L193#2_3_1" sampledSeconds="1308.00" nVehEntered="1" nVehLeft="1" nVehSeen="14" meanSpeed="0.09" meanTimeLoss="92.75" meanOccupancy="60.63" maxOccupancy="64.99" meanMaxJamLengthInVehicles="12.20" meanMaxJamLengthInMeters="89.41" maxJamLengthInVehicles="14" maxJamLengthInMeters="98.60" jamLengthInVehiclesSum="1279" jamLengthInMetersSum="9354.62" meanHaltingDuration="370.62" maxHaltingDuration="1194.00" haltingDurationSum="8895.00" meanIntervalHaltingDuration="53.29" maxIntervalHaltingDuration="100.00" intervalHaltingDurationSum="1279.00" startedHalts="13.00" meanVehicleNumber="13.08" maxVehicleNumber="14" />
   <interval begin="23600.00" end="23700.00" id="e2_L193#2_3_1" sampledSeconds="1300.00" nVehEntered="0" nVehLeft="0" nVehSeen="13" meanSpeed="0.00" meanTimeLoss="100.00" meanOccupancy="60.53" maxOccupancy="60.53" meanMaxJamLengthInVehicles="13.00" meanMaxJamLengthInMeters="96.37" maxJamLengthInVehicles="13" maxJamLengthInMeters="96.37" jamLengthInVehiclesSum="1300" jamLengthInMetersSum="9637.05" meanHaltingDuration="688.23" maxHaltingDuration="1294.00" haltingDurationSum="8947.00" meanIntervalHaltingDuration="100.00" maxIntervalHaltingDuration="100.00" intervalHaltingDurationSum="1300.00" startedHalts="0.00" meanVehicleNumber="13.00" maxVehicleNumber="13" />
   <interval begin="23700.00" end="23800.00" id="e2_L193#2_3_1" sampledSeconds="1300.00" nVehEntered="0" nVehLeft="0" nVehSeen="13" meanSpeed="0.00" meanTimeLoss="100.00" meanOccupancy="60.53" maxOccupancy="60.53" meanMaxJamLengthInVehicles="13.00" meanMaxJamLengthInMeters="96.37" maxJamLengthInVehicles="13" maxJamLengthInMeters="96.37" jamLengthInVehiclesSum="1300" jamLengthInMetersSum="9637.05" meanHaltingDuration="788.23" maxHaltingDuration="1394.00" haltingDurationSum="10247.00" meanIntervalHaltingDuration="100.00" maxIntervalHaltingDuration="100.00" intervalHaltingDurationSum="1300.00" startedHalts="0.00" meanVehicleNumber="13.00" maxVehicleNumber="13" />
   <interval begin="23800.00" end="23900.00" id="e2_L193#2_3_1" sampledSeconds="1292.50" nVehEntered="1" nVehLeft="2" nVehSeen="14" meanSpeed="0.04" meanTimeLoss="92.03" meanOccupancy="59.85" maxOccupancy="60.53" meanMaxJamLengthInVehicles="12.75" meanMaxJamLengthInMeters="94.95" maxJamLengthInVehicles="13" maxJamLengthInMeters="100.78" jamLengthInVehiclesSum="1280" jamLengthInMetersSum="9522.43" meanHaltingDuration="697.31" maxHaltingDuration="1494.00" haltingDurationSum="11157.00" meanIntervalHaltingDuration="74.50" maxIntervalHaltingDuration="100.00" intervalHaltingDurationSum="1192.00" startedHalts="4.00" meanVehicleNumber="12.93" maxVehicleNumber="13" />
   <interval begin="23900.00" end="24000.00" id="e2_L193#2_3_1" sampledSeconds="1296.00" nVehEntered="1" nVehLeft="0" nVehSeen="13" meanSpeed="0.02" meanTimeLoss="99.56" meanOccupancy="59.95" maxOccupancy="60.36" meanMaxJamLengthInVehicles="12.87" meanMaxJamLengthInMeters="96.00" maxJamLengthInVehicles="13" maxJamLengthInMeters="96.78" jamLengthInVehiclesSum="1294" jamLengthInMetersSum="9648.25" meanHaltingDuration="842.38" maxHaltingDuration="1594.00" haltingDurationSum="10951.00" meanIntervalHaltingDuration="99.69" maxIntervalHaltingDuration="100.00" intervalHaltingDurationSum="1296.00" startedHalts="2.00" meanVehicleNumber="12.96" maxVehicleNumber="13" />
   <interval begin="24000.00" end="24100.00" id="e2_L193#2_3_1" sampledSeconds="1225.90" nVehEntered="2" nVehLeft="3" nVehSeen="15" meanSpeed="0.07" meanTimeLoss="81.26" meanOccupancy="56.90" maxOccupancy="60.11" meanMaxJamLengthInVehicles="11.99" meanMaxJamLengthInMeters="93.89" maxJamLengthInVehicles="13" maxJamLengthInMeters="101.13" jamLengthInVehiclesSum="1219" jamLengthInMetersSum="9520.01" meanHaltingDuration="694.07" maxHaltingDuration="1694.00" haltingDurationSum="10411.00" meanIntervalHaltingDuration="76.33" maxIntervalHaltingDuration="100.00" intervalHaltingDurationSum="1145.00" startedHalts="5.00" meanVehicleNumber="12.27" maxVehicleNumber="13" />
   <interval begin="24100.00" end="24200.00" id="e2_L193#2_3_1" sampledSeconds="1146.45" nVehEntered="1" nVehLeft="3" nVehSeen="13" meanSpeed="0.05" meanTimeLoss="87.81" meanOccupancy="53.48" maxOccupancy="56.25" meanMaxJamLengthInVehicles="11.13" meanMaxJamLengthInMeters="91.15" maxJamLengthInVehicles="12" maxJamLengthInMeters="97.19" jamLengthInVehiclesSum="1121" jamLengthInMetersSum="9138.49" meanHaltingDuration="592.58" maxHaltingDuration="1794.00" haltingDurationSum="11259.00" meanIntervalHaltingDuration="59.21" maxIntervalHaltingDuration="100.00" intervalHaltingDurationSum="1125.00" startedHalts="10.00" meanVehicleNumber="11.47" maxVehicleNumber="12" />
   <interval begin="24200.00" end="24300.00" id="e2_L193#2_3_1" sampledSeconds="1265.10" nVehEntered="4" nVehLeft="1" nVehSeen="14" meanSpeed="0.06" meanTimeLoss="89.91" meanOccupancy="57.69" maxOccupancy="58.97" meanMaxJamLengthInVehicles="11.86" meanMaxJamLengthInMeters="90.45" maxJamLengthInVehicles="13" maxJamLengthInMeters="98.39" jamLengthInVehiclesSum="1227" jamLengthInMetersSum="9354.50" meanHaltingDuration="384.00" maxHaltingDuration="1798.00" haltingDurationSum="9216.00" meanIntervalHaltingDuration="51.46" maxIntervalHaltingDuration="100.00" intervalHaltingDurationSum="1235.00" startedHalts="16.00" meanVehicleNumber="12.66" maxVehicleNumber="13" />
   <interval begin="24300.00" end="24400.00" id="e2_L193#2_3_1" sampledSeconds="1300.00" nVehEntered="0" nVehLeft="0" nVehSeen="13" meanSpeed="0.00" meanTimeLoss="100.00" meanOccupancy="58.97" maxOccupancy="58.97" meanMaxJamLengthInVehicles="13.00" meanMaxJamLengthInMeters="98.39" maxJamLengthInVehicles="13" maxJamLengthInMeters="98.39" jamLengthInVehiclesSum="1300" jamLengthInMetersSum="9838.68" meanHaltingDuration="192.62" maxHaltingDuration="213.00" haltingDurationSum="2504.00" meanIntervalHaltingDuration="100.00" maxIntervalHaltingDuration="100.00" intervalHaltingDurationSum="1300.00" startedHalts="0.00" meanVehicleNumber="13.00" maxVehicleNumber="13" />
   <interval begin="24400.00" end="24500.00" id="e2_L193#2_3_1" sampledSeconds="1300.00" nVehEntered="0" nVehLeft="0" nVehSeen="13" meanSpeed="0.00" meanTimeLoss="100.00" meanOccupancy="58.97" maxOccupancy="58.97" meanMaxJamLengthInVehicles="13.00" meanMaxJamLengthInMeters="98.39" maxJamLengthInVehicles="13" maxJamLengthInMeters="98.39" jamLengthInVehiclesSum="1300" jamLengthInMetersSum="9838.68" meanHaltingDuration="292.62" maxHaltingDuration="313.00" haltingDurationSum="3804.00" meanIntervalHaltingDuration="100.00" maxIntervalHaltingDuration="100.00" intervalHaltingDurationSum="1300.00" startedHalts="0.00" meanVehicleNumber="13.00" maxVehicleNumber="13" />
   <interval begin="24500.00" end="24600.00" id="e2_L193#2_3_1" sampledSeconds="1300.00" nVehEntered="0" nVehLeft="0" nVehSeen="13" meanSpeed="0.00" meanTimeLoss="100.00" meanOccupancy="58.97" maxOccupancy="58.97" meanMaxJamLengthInVehicles="13.00" meanMaxJamLengthInMeters="98.39" maxJamLengthInVehicles="13" maxJamLengthInMeters="98.39" jamLengthInVehiclesSum="1300" jamLengthInMetersSum="9838.68" meanHaltingDuration="392.62" maxHaltingDuration="413.00" haltingDurationSum="5104.00" meanIntervalHaltingDuration="100.00" maxIntervalHaltingDuration="100.00" intervalHaltingDurationSum="1300.00" startedHalts="0.00" meanVehicleNumber="13.00" maxVehicleNumber="13" />
   <interval begin="24600.00" end="24700.00" id="e2_L193#2_3_1" sampledSeconds="1300.00" nVehEntered="0" nVehLeft="0" nVehSeen="13" meanSpeed="0.00" meanTimeLoss="100.00" meanOccupancy="58.97" maxOccupancy="58.97" meanMaxJamLengthInVehicles="13.00" meanMaxJamLengthInMeters="98.39" maxJamLengthInVehicles="13" maxJamLengthInMeters="98.39" jamLengthInVehiclesSum="1300" jamLengthInMetersSum="9838.68" meanHaltingDuration="492.62" maxHaltingDuration="513.00" haltingDurationSum="6404.00" meanIntervalHaltingDuration="100.00" maxIntervalHaltingDuration="100.00" intervalHaltingDurationSum="1300.00" startedHalts="0.00" meanVehicleNumber="13.00" maxVehicleNumber="13" />
   <interval begin="24700.00" end="24800.00" id="e2_L193#2_3_1" sampledSeconds="1300.00" nVehEntered="0" nVehLeft="0" nVehSeen="13" meanSpeed="0.00" meanTimeLoss="100.00" meanOccupancy="58.97" maxOccupancy="58.97" meanMaxJamLengthInVehicles="13.00" meanMaxJamLengthInMeters="98.39" maxJamLengthInVehicles="13" maxJamLengthInMeters="98.39" jamLengthInVehiclesSum="1300" jamLengthInMetersSum="9838.68" meanHaltingDuration="592.62" maxHaltingDuration="613.00" haltingDurationSum="7704.00" meanIntervalHaltingDuration="100.00" maxIntervalHaltingDuration="100.00" intervalHaltingDurationSum="1300.00" startedHalts="0.00" meanVehicleNumber="13.00" maxVehicleNumber="13" />
   <interval begin="24800.00" end="24900.00" id="e2_L193#2_3_1" sampledSeconds="1300.00" nVehEntered="0" nVehLeft="0" nVehSeen="13" meanSpeed="0.01" meanTimeLoss="99.94" meanOccupancy="58.39" maxOccupancy="58.97" meanMaxJamLengthInVehicles="13.00" meanMaxJamLengthInMeters="99.11" maxJamLengthInVehicles="13" maxJamLengthInMeters="99.29" jamLengthInVehiclesSum="1300" jamLengthInMetersSum="9911.24" meanHaltingDuration="692.62" maxHaltingDuration="713.00" haltingDurationSum="9004.00" meanIntervalHaltingDuration="100.00" maxIntervalHaltingDuration="100.00" intervalHaltingDurationSum="1300.00" startedHalts="0.00" meanVehicleNumber="13.00" maxVehicleNumber="13" />
   <interval begin="24900.00" end="25000.00" id="e2_L193#2_3_1" sampledSeconds="1300.00" nVehEntered="0" nVehLeft="0" nVehSeen="13" meanSpeed="0.00" meanTimeLoss="100.00" meanOccupancy="58.23" maxOccupancy="58.23" meanMaxJamLengthInVehicles="13.00" meanMaxJamLengthInMeters="99.29" maxJamLengthInVehicles="13" maxJamLengthInMeters="99.29" jamLengthInVehiclesSum="1300" jamLengthInMetersSum="9928.67" meanHaltingDuration="792.62" maxHaltingDuration="813.00" haltingDurationSum="10304.00" meanIntervalHaltingDuration="100.00" maxIntervalHaltingDuration="100.00" intervalHaltingDurationSum="1300.00" startedHalts="0.00" meanVehicleNumber="13.00" maxVehicleNumber="13" />
   <interval begin="25000.00" end="25100.00" id="e2_L193#2_3_1" sampledSeconds="1300.00" nVehEntered="0" nVehLeft="0" nVehSeen="13" meanSpeed="0.00" meanTimeLoss="100.00" meanOccupancy="58.23" maxOccupancy="58.23" meanMaxJamLengthInVehicles="13.00" meanMaxJamLengthInMeters="99.29" maxJamLengthInVehicles="13" maxJamLengthInMeters="99.29" jamLengthInVehiclesSum="1300" jamLengthInMetersSum="9928.67" meanHaltingDuration="892.62" maxHaltingDuration="913.00" haltingDurationSum="11604.00" meanIntervalHaltingDuration="100.00" maxIntervalHaltingDuration="100.00" intervalHaltingDurationSum="1300.00" startedHalts="0.00" meanVehicleNumber="13.00" maxVehicleNumber="13" />
   <interval begin="25100.00" end="25200.00" id="e2_L193#2_3_1" sampledSeconds="1300.00" nVehEntered="0" nVehLeft="0" nVehSeen="13" meanSpeed="0.00" meanTimeLoss="100.00" meanOccupancy="58.23" maxOccupancy="58.23" meanMaxJamLengthInVehicles="13.00" meanMaxJamLengthInMeters="99.29" maxJamLengthInVehicles="13" maxJamLengthInMeters="99.29" jamLengthInVehiclesSum="1300" jamLengthInMetersSum="9928.67" meanHaltingDuration="992.62" maxHaltingDuration="1013.00" haltingDurationSum="12904.00" meanIntervalHaltingDuration="100.00" maxIntervalHaltingDuration="100.00" intervalHaltingDurationSum="1300.00" startedHalts="0.00" meanVehicleNumber="13.00" maxVehicleNumber="13" />
   <interval begin="25200.00" end="25300.00" id="e2_L193#2_3_1" sampledSeconds="1300.00" nVehEntered="0" nVehLeft="0" nVehSeen="13" meanSpeed="0.00" meanTimeLoss="100.00" meanOccupancy="58.23" maxOccupancy="58.23" meanMaxJamLengthInVehicles="13.00" meanMaxJamLengthInMeters="99.29" maxJamLengthInVehicles="13" maxJamLengthInMeters="99.29" jamLengthInVehiclesSum="1300" jamLengthInMetersSum="9928.67" meanHaltingDuration="1092.62" maxHaltingDuration="1113.00" haltingDurationSum="14204.00" meanIntervalHaltingDuration="100.00" maxIntervalHaltingDuration="100.00" intervalHaltingDurationSum="1300.00" startedHalts="0.00" meanVehicleNumber="13.00" maxVehicleNumber="13" />
   <interval begin="25300.00" end="25400.00" id="e2_L193#2_3_1" sampledSeconds="1300.00" nVehEntered="0" nVehLeft="0" nVehSeen="13" meanSpeed="0.00" meanTimeLoss="100.00" meanOccupancy="58.23" maxOccupancy="58.23" meanMaxJamLengthInVehicles="13.00" meanMaxJamLengthInMeters="99.29" maxJamLengthInVehicles="13" maxJamLengthInMeters="99.29" jamLengthInVehiclesSum="1300" jamLengthInMetersSum="9928.67" meanHaltingDuration="1192.62" maxHaltingDuration="1213.00" haltingDurationSum="15504.00" meanIntervalHaltingDuration="100.00" maxIntervalHaltingDuration="100.00" intervalHaltingDurationSum="1300.00" startedHalts="0.00" meanVehicleNumber="13.00" maxVehicleNumber="13" />
   <interval begin="25400.00" end="25500.00" id="e2_L193#2_3_1" sampledSeconds="1290.68" nVehEntered="1" nVehLeft="1" nVehSeen="14" meanSpeed="0.03" meanTimeLoss="91.97" meanOccupancy="57.67" maxOccupancy="58.97" meanMaxJamLengthInVehicles="12.87" meanMaxJamLengthInMeters="98.29" maxJamLengthInVehicles="13" maxJamLengthInMeters="103.49" jamLengthInVehiclesSum="1290" jamLengthInMetersSum="9845.23" meanHaltingDuration="1191.69" maxHaltingDuration="1301.00" haltingDurationSum="15492.00" meanIntervalHaltingDuration="92.38" maxIntervalHaltingDuration="100.00" intervalHaltingDurationSum="1201.00" startedHalts="1.00" meanVehicleNumber="12.91" maxVehicleNumber="13" />
   <interval begin="25500.00" end="25600.00" id="e2_L193#2_3_1" sampledSeconds="1144.60" nVehEntered="16" nVehLeft="15" nVehSeen="29" meanSpeed="1.15" meanTimeLoss="35.83" meanOccupancy="52.49" maxOccupancy="64.54" meanMaxJamLengthInVehicles="6.88" meanMaxJamLengthInMeters="49.45" maxJamLengthInVehicles="14" maxJamLengthInMeters="103.10" jamLengthInVehiclesSum="771" jamLengthInMetersSum="5454.61" meanHaltingDuration="223.44" maxHaltingDuration="1340.00" haltingDurationSum="16311.00" meanIntervalHaltingDuration="11.22" maxIntervalHaltingDuration="59.00" intervalHaltingDurationSum="819.00" startedHalts="62.00" meanVehicleNumber="11.52" maxVehicleNumber="14" />
   <interval begin="25600.00" end="25700.00" id="e2_L193#2_3_1" sampledSeconds="1158.58" nVehEntered="11" nVehLeft="20" nVehSeen="25" meanSpeed="1.26" meanTimeLoss="41.68" meanOccupancy="51.77" maxOccupancy="65.82" meanMaxJamLengthInVehicles="7.52" meanMaxJamLengthInMeters="51.88" maxJamLengthInVehicles="15" maxJamLengthInMeters="104.19" jamLengthInVehiclesSum="784" jamLengthInMetersSum="5358.11" meanHaltingDuration="18.61" maxHaltingDuration="73.00" haltingDurationSum="912.00" meanIntervalHaltingDuration="16.16" maxIntervalHaltingDuration="66.00" intervalHaltingDurationSum="792.00" startedHalts="37.00" meanVehicleNumber="11.73" maxVehicleNumber="15" />
   <interval begin="25700.00" end="25800.00" id="e2_L193#2_3_1" sampledSeconds="1192.10" nVehEntered="14" nVehLeft="5" nVehSeen="19" meanSpeed="0.68" meanTimeLoss="59.32" meanOccupancy="53.13" maxOccupancy="61.46" meanMaxJamLengthInVehicles="9.94" meanMaxJamLengthInMeters="65.56" maxJamLengthInVehicles="14" maxJamLengthInMeters="91.40" jamLengthInVehiclesSum="994" jamLengthInMetersSum="6556.16" meanHaltingDuration="63.12" maxHaltingDuration="82.00" haltingDurationSum="1010.00" meanIntervalHaltingDuration="63.12" maxIntervalHaltingDuration="82.00" intervalHaltingDurationSum="1010.00" startedHalts="17.00" meanVehicleNumber="12.00" maxVehicleNumber="14" />