<?xml version="1.0" encoding="UTF-8"?>

<!-- generated on Sun Feb 17 15:57:00 2019 by 
<configuration xmlns:xsi="http://www.w3.org/2001/XMLSchema-instance" xsi:noNamespaceSchemaLocation="http://sumo.dlr.de/xsd/Configuration.xsd">

    <input>
        <net-file value="/home/sda/Documents/sumo-sathorn-ray/models/sathorn-morning/sathorn_w_fixed_20160404.net.xml"/>
        <route-files value="/home/sda/Documents/sumo-sathorn-ray/models/sathorn-morning/Great-route/sathorn_w_20160422edit2.rou.xml"/>
        <additional-files value="/home/sda/Documents/sumo-sathorn-ray/models/sathorn-morning/sathon_wide_tls_20160418_edited.add.xml,/home/sda/Documents/sumo-sathorn-ray/detectors/sathorn_w_detectors.add.xml"/>
    </input>

    <time>
        <begin value="21600"/>
        <end value="32400"/>
        <step-length value="1"/>
    </time>

    <processing>
        <no-internal-links value="true"/>
        <ignore-junction-blocker value="-1"/>
        <time-to-teleport value="-1"/>
        <eager-insert value="true"/>
        <time-to-impatience value="300"/>
    </processing>

    <report>
        <no-warnings value="true"/>
    </report>

    <random_number>
        <random value="false"/>
        <seed value="20"/>
    </random_number>

    <gui_only>
        <gui-settings-file value="/home/sda/Documents/sumo-sathorn-ray/gui-settings/gui-settings-file-surasak.xml"/>
        <quit-on-end value="true"/>
        <start value="true"/>
        <tracker-interval value="1"/>
    </gui_only>

</configuration>
-->

<detector xmlns:xsi="http://www.w3.org/2001/XMLSchema-instance" xsi:noNamespaceSchemaLocation="http://sumo.dlr.de/xsd/det_e2_file.xsd">
   <interval begin="21600.00" end="21700.00" id="e2_L10189_2_0" sampledSeconds="0.00" nVehEntered="0" nVehLeft="0" nVehSeen="0" meanSpeed="-1.00" meanTimeLoss="-1.00" meanOccupancy="0.00" maxOccupancy="0.00" meanMaxJamLengthInVehicles="0.00" meanMaxJamLengthInMeters="0.00" maxJamLengthInVehicles="0" maxJamLengthInMeters="0.00" jamLengthInVehiclesSum="0" jamLengthInMetersSum="0.00" meanHaltingDuration="0.00" maxHaltingDuration="0.00" haltingDurationSum="0.00" meanIntervalHaltingDuration="0.00" maxIntervalHaltingDuration="0.00" intervalHaltingDurationSum="0.00" startedHalts="0.00" meanVehicleNumber="0.00" maxVehicleNumber="0" />
   <interval begin="21700.00" end="21800.00" id="e2_L10189_2_0" sampledSeconds="22.30" nVehEntered="2" nVehLeft="0" nVehSeen="2" meanSpeed="2.26" meanTimeLoss="9.13" meanOccupancy="3.50" maxOccupancy="30.80" meanMaxJamLengthInVehicles="0.13" meanMaxJamLengthInMeters="0.60" maxJamLengthInVehicles="1" maxJamLengthInMeters="4.62" jamLengthInVehiclesSum="13" jamLengthInMetersSum="60.06" meanHaltingDuration="14.00" maxHaltingDuration="14.00" haltingDurationSum="14.00" meanIntervalHaltingDuration="14.00" maxIntervalHaltingDuration="14.00" intervalHaltingDurationSum="14.00" startedHalts="1.00" meanVehicleNumber="0.23" maxVehicleNumber="2" />
   <interval begin="21800.00" end="21900.00" id="e2_L10189_2_0" sampledSeconds="43.51" nVehEntered="4" nVehLeft="6" nVehSeen="6" meanSpeed="3.23" meanTimeLoss="5.38" meanOccupancy="6.43" maxOccupancy="30.80" meanMaxJamLengthInVehicles="0.15" meanMaxJamLengthInMeters="0.82" maxJamLengthInVehicles="2" maxJamLengthInMeters="12.72" jamLengthInVehiclesSum="15" jamLengthInMetersSum="82.28" meanHaltingDuration="3.33" maxHaltingDuration="7.00" haltingDurationSum="10.00" meanIntervalHaltingDuration="3.33" maxIntervalHaltingDuration="7.00" intervalHaltingDurationSum="10.00" startedHalts="4.00" meanVehicleNumber="0.46" maxVehicleNumber="2" />
   <interval begin="21900.00" end="22000.00" id="e2_L10189_2_0" sampledSeconds="28.40" nVehEntered="8" nVehLeft="8" nVehSeen="8" meanSpeed="8.58" meanTimeLoss="1.11" meanOccupancy="4.12" maxOccupancy="30.80" meanMaxJamLengthInVehicles="0.00" meanMaxJamLengthInMeters="0.00" maxJamLengthInVehicles="0" maxJamLengthInMeters="0.00" jamLengthInVehiclesSum="0" jamLengthInMetersSum="0.00" meanHaltingDuration="0.00" maxHaltingDuration="0.00" haltingDurationSum="0.00" meanIntervalHaltingDuration="0.00" maxIntervalHaltingDuration="0.00" intervalHaltingDurationSum="0.00" startedHalts="0.00" meanVehicleNumber="0.36" maxVehicleNumber="2" />
   <interval begin="22000.00" end="22100.00" id="e2_L10189_2_0" sampledSeconds="0.00" nVehEntered="0" nVehLeft="0" nVehSeen="0" meanSpeed="-1.00" meanTimeLoss="-1.00" meanOccupancy="0.00" maxOccupancy="0.00" meanMaxJamLengthInVehicles="0.00" meanMaxJamLengthInMeters="0.00" maxJamLengthInVehicles="0" maxJamLengthInMeters="0.00" jamLengthInVehiclesSum="0" jamLengthInMetersSum="0.00" meanHaltingDuration="0.00" maxHaltingDuration="0.00" haltingDurationSum="0.00" meanIntervalHaltingDuration="0.00" maxIntervalHaltingDuration="0.00" intervalHaltingDurationSum="0.00" startedHalts="0.00" meanVehicleNumber="0.00" maxVehicleNumber="0" />
   <interval begin="22100.00" end="22200.00" id="e2_L10189_2_0" sampledSeconds="54.17" nVehEntered="11" nVehLeft="11" nVehSeen="11" meanSpeed="6.02" meanTimeLoss="2.55" meanOccupancy="7.54" maxOccupancy="30.80" meanMaxJamLengthInVehicles="0.13" meanMaxJamLengthInMeters="0.63" maxJamLengthInVehicles="2" maxJamLengthInMeters="12.60" jamLengthInVehiclesSum="13" jamLengthInMetersSum="63.42" meanHaltingDuration="4.00" maxHaltingDuration="4.00" haltingDurationSum="4.00" meanIntervalHaltingDuration="4.00" maxIntervalHaltingDuration="4.00" intervalHaltingDurationSum="4.00" startedHalts="2.00" meanVehicleNumber="0.60" maxVehicleNumber="2" />
   <interval begin="22200.00" end="22300.00" id="e2_L10189_2_0" sampledSeconds="38.57" nVehEntered="9" nVehLeft="8" nVehSeen="9" meanSpeed="7.57" meanTimeLoss="1.69" meanOccupancy="5.47" maxOccupancy="30.80" meanMaxJamLengthInVehicles="0.02" meanMaxJamLengthInMeters="0.09" maxJamLengthInVehicles="1" maxJamLengthInMeters="4.62" jamLengthInVehiclesSum="2" jamLengthInMetersSum="9.24" meanHaltingDuration="3.00" maxHaltingDuration="3.00" haltingDurationSum="3.00" meanIntervalHaltingDuration="3.00" maxIntervalHaltingDuration="3.00" intervalHaltingDurationSum="3.00" startedHalts="1.00" meanVehicleNumber="0.46" maxVehicleNumber="2" />
   <interval begin="22300.00" end="22400.00" id="e2_L10189_2_0" sampledSeconds="61.26" nVehEntered="12" nVehLeft="13" nVehSeen="13" meanSpeed="5.75" meanTimeLoss="2.54" meanOccupancy="8.82" maxOccupancy="30.80" meanMaxJamLengthInVehicles="0.13" meanMaxJamLengthInMeters="0.59" maxJamLengthInVehicles="1" maxJamLengthInMeters="4.62" jamLengthInVehiclesSum="13" jamLengthInMetersSum="58.73" meanHaltingDuration="1.50" maxHaltingDuration="2.00" haltingDurationSum="3.00" meanIntervalHaltingDuration="1.50" maxIntervalHaltingDuration="2.00" intervalHaltingDurationSum="3.00" startedHalts="4.00" meanVehicleNumber="0.70" maxVehicleNumber="2" />
   <interval begin="22400.00" end="22500.00" id="e2_L10189_2_0" sampledSeconds="34.76" nVehEntered="8" nVehLeft="7" nVehSeen="8" meanSpeed="5.74" meanTimeLoss="2.35" meanOccupancy="5.07" maxOccupancy="30.80" meanMaxJamLengthInVehicles="0.07" meanMaxJamLengthInMeters="0.32" maxJamLengthInVehicles="1" maxJamLengthInMeters="4.62" jamLengthInVehiclesSum="7" jamLengthInMetersSum="32.07" meanHaltingDuration="1.00" maxHaltingDuration="1.00" haltingDurationSum="1.00" meanIntervalHaltingDuration="1.00" maxIntervalHaltingDuration="1.00" intervalHaltingDurationSum="1.00" startedHalts="2.00" meanVehicleNumber="0.40" maxVehicleNumber="2" />
   <interval begin="22500.00" end="22600.00" id="e2_L10189_2_0" sampledSeconds="68.22" nVehEntered="12" nVehLeft="13" nVehSeen="13" meanSpeed="5.24" meanTimeLoss="3.05" meanOccupancy="9.64" maxOccupancy="40.21" meanMaxJamLengthInVehicles="0.06" meanMaxJamLengthInMeters="0.28" maxJamLengthInVehicles="1" maxJamLengthInMeters="4.62" jamLengthInVehiclesSum="6" jamLengthInMetersSum="27.72" meanHaltingDuration="2.20" maxHaltingDuration="4.00" haltingDurationSum="11.00" meanIntervalHaltingDuration="2.20" maxIntervalHaltingDuration="4.00" intervalHaltingDurationSum="11.00" startedHalts="5.00" meanVehicleNumber="0.79" maxVehicleNumber="3" />
   <interval begin="22600.00" end="22700.00" id="e2_L10189_2_0" sampledSeconds="34.18" nVehEntered="10" nVehLeft="10" nVehSeen="10" meanSpeed="9.10" meanTimeLoss="0.93" meanOccupancy="4.46" maxOccupancy="20.26" meanMaxJamLengthInVehicles="0.00" meanMaxJamLengthInMeters="0.00" maxJamLengthInVehicles="0" maxJamLengthInMeters="0.00" jamLengthInVehiclesSum="0" jamLengthInMetersSum="0.00" meanHaltingDuration="1.00" maxHaltingDuration="1.00" haltingDurationSum="1.00" meanIntervalHaltingDuration="1.00" maxIntervalHaltingDuration="1.00" intervalHaltingDurationSum="1.00" startedHalts="1.00" meanVehicleNumber="0.44" maxVehicleNumber="2" />
   <interval begin="22700.00" end="22800.00" id="e2_L10189_2_0" sampledSeconds="53.62" nVehEntered="16" nVehLeft="16" nVehSeen="16" meanSpeed="8.81" meanTimeLoss="0.98" meanOccupancy="7.09" maxOccupancy="30.80" meanMaxJamLengthInVehicles="0.00" meanMaxJamLengthInMeters="0.00" maxJamLengthInVehicles="0" maxJamLengthInMeters="0.00" jamLengthInVehiclesSum="0" jamLengthInMetersSum="0.00" meanHaltingDuration="0.00" maxHaltingDuration="0.00" haltingDurationSum="0.00" meanIntervalHaltingDuration="0.00" maxIntervalHaltingDuration="0.00" intervalHaltingDurationSum="0.00" startedHalts="0.00" meanVehicleNumber="0.68" maxVehicleNumber="2" />
   <interval begin="22800.00" end="22900.00" id="e2_L10189_2_0" sampledSeconds="164.50" nVehEntered="22" nVehLeft="20" nVehSeen="22" meanSpeed="4.15" meanTimeLoss="4.99" meanOccupancy="23.37" maxOccupancy="61.60" meanMaxJamLengthInVehicles="0.33" meanMaxJamLengthInMeters="1.88" maxJamLengthInVehicles="3" maxJamLengthInMeters="19.41" jamLengthInVehiclesSum="33" jamLengthInMetersSum="187.56" 