<?xml version="1.0" encoding="UTF-8"?>

<!-- generated on Sun Feb 17 15:57:00 2019 by 
<configuration xmlns:xsi="http://www.w3.org/2001/XMLSchema-instance" xsi:noNamespaceSchemaLocation="http://sumo.dlr.de/xsd/Configuration.xsd">

    <input>
        <net-file value="/home/sda/Documents/sumo-sathorn-ray/models/sathorn-morning/sathorn_w_fixed_20160404.net.xml"/>
        <route-files value="/home/sda/Documents/sumo-sathorn-ray/models/sathorn-morning/Great-route/sathorn_w_20160422edit2.rou.xml"/>
        <additional-files value="/home/sda/Documents/sumo-sathorn-ray/models/sathorn-morning/sathon_wide_tls_20160418_edited.add.xml,/home/sda/Documents/sumo-sathorn-ray/detectors/sathorn_w_detectors.add.xml"/>
    </input>

    <time>
        <begin value="21600"/>
        <end value="32400"/>
        <step-length value="1"/>
    </time>

    <processing>
        <no-internal-links value="true"/>
        <ignore-junction-blocker value="-1"/>
        <time-to-teleport value="-1"/>
        <eager-insert value="true"/>
        <time-to-impatience value="300"/>
    </processing>

    <report>
        <no-warnings value="true"/>
    </report>

    <random_number>
        <random value="false"/>
        <seed value="20"/>
    </random_number>

    <gui_only>
        <gui-settings-file value="/home/sda/Documents/sumo-sathorn-ray/gui-settings/gui-settings-file-surasak.xml"/>
        <quit-on-end value="true"/>
        <start value="true"/>
        <tracker-interval value="1"/>
    </gui_only>

</configuration>
-->

<detector xmlns:xsi="http://www.w3.org/2001/XMLSchema-instance" xsi:noNamespaceSchemaLocation="http://sumo.dlr.de/xsd/det_e2_file.xsd">
   <interval begin="21600.00" end="21700.00" id="e2_L601_1_4" sampledSeconds="63.32" nVehEntered="5" nVehLeft="3" nVehSeen="5" meanSpeed="11.69" meanTimeLoss="0.82" meanOccupancy="0.83" maxOccupancy="4.10" meanMaxJamLengthInVehicles="0.00" meanMaxJamLengthInMeters="0.00" maxJamLengthInVehicles="0" maxJamLengthInMeters="0.00" jamLengthInVehiclesSum="0" jamLengthInMetersSum="0.00" meanHaltingDuration="0.00" maxHaltingDuration="0.00" haltingDurationSum="0.00" meanIntervalHaltingDuration="0.00" maxIntervalHaltingDuration="0.00" intervalHaltingDurationSum="0.00" startedHalts="0.00" meanVehicleNumber="0.66" maxVehicleNumber="3" />
   <interval begin="21700.00" end="21800.00" id="e2_L601_1_4" sampledSeconds="128.33" nVehEntered="8" nVehLeft="8" nVehSeen="10" meanSpeed="11.36" meanTimeLoss="1.16" meanOccupancy="1.66" maxOccupancy="4.10" meanMaxJamLengthInVehicles="0.00" meanMaxJamLengthInMeters="0.00" maxJamLengthInVehicles="0" maxJamLengthInMeters="0.00" jamLengthInVehiclesSum="0" jamLengthInMetersSum="0.00" meanHaltingDuration="0.00" maxHaltingDuration="0.00" haltingDurationSum="0.00" meanIntervalHaltingDuration="0.00" maxIntervalHaltingDuration="0.00" intervalHaltingDurationSum="0.00" startedHalts="0.00" meanVehicleNumber="1.32" maxVehicleNumber="3" />
   <interval begin="21800.00" end="21900.00" id="e2_L601_1_4" sampledSeconds="125.55" nVehEntered="5" nVehLeft="5" nVehSeen="7" meanSpeed="11.69" meanTimeLoss="1.16" meanOccupancy="1.67" maxOccupancy="5.18" meanMaxJamLengthInVehicles="0.00" meanMaxJamLengthInMeters="0.00" maxJamLengthInVehicles="0" maxJamLengthInMeters="0.00" jamLengthInVehiclesSum="0" jamLengthInMetersSum="0.00" meanHaltingDuration="0.00" maxHaltingDuration="0.00" haltingDurationSum="0.00" meanIntervalHaltingDuration="0.00" maxIntervalHaltingDuration="0.00" intervalHaltingDurationSum="0.00" startedHalts="0.00" meanVehicleNumber="1.28" maxVehicleNumber="4" />
   <interval begin="21900.00" end="22000.00" id="e2_L601_1_4" sampledSeconds="107.89" nVehEntered="4" nVehLeft="6" nVehSeen="6" meanSpeed="11.44" meanTimeLoss="1.48" meanOccupancy="1.42" maxOccupancy="4.10" meanMaxJamLengthInVehicles="0.00" meanMaxJamLengthInMeters="0.00" maxJamLengthInVehicles="0" maxJamLengthInMeters="0.00" jamLengthInVehiclesSum="0" jamLengthInMetersSum="0.00" meanHaltingDuration="0.00" maxHaltingDuration="0.00" haltingDurationSum="0.00" meanIntervalHaltingDuration="0.00" maxIntervalHaltingDuration="0.00" intervalHaltingDurationSum="0.00" startedHalts="0.00" meanVehicleNumber="1.10" maxVehicleNumber="3" />
   <interval begin="22000.00" end="22100.00" id="e2_L601_1_4" sampledSeconds="125.29" nVehEntered="5" nVehLeft="4" nVehSeen="5" meanSpeed="11.67" meanTimeLoss="1.67" meanOccupancy="1.66" maxOccupancy="4.10" meanMaxJamLengthInVehicles="0.00" meanMaxJamLengthInMeters="0.00" maxJamLengthInVehicles="0" maxJamLengthInMeters="0.00" jamLengthInVehiclesSum="0" jamLengthInMetersSum="0.00" meanHaltingDuration="0.00" maxHaltingDuration="0.00" haltingDurationSum="0.00" meanIntervalHaltingDuration="0.00" maxIntervalHaltingDuration="0.00" intervalHaltingDurationSum="0.00" startedHalts="0.00" meanVehicleNumber="1.27" maxVehicleNumber="3" />
   <interval begin="22100.00" end="22200.00" id="e2_L601_1_4" sampledSeconds="143.88" nVehEntered="6" nVehLeft="6" nVehSeen="7" meanSpeed="11.56" meanTimeLoss="1.55" meanOccupancy="1.90" maxOccupancy="2.73" meanMaxJamLengthInVehicles="0.00" meanMaxJamLengthInMeters="0.00" maxJamLengthInVehicles="0" maxJamLengthInMeters="0.00" jamLengthInVehiclesSum="0" jamLengthInMetersSum="0.00" meanHaltingDuration="0.00" maxHaltingDuration="0.00" haltingDurationSum="0.00" meanIntervalHaltingDuration="0.00" maxIntervalHaltingDuration="0.00" intervalHaltingDurationSum="0.00" startedHalts="0.00" meanVehicleNumber="1.47" maxVehicleNumber="2" />
   <interval begin="22200.00" end="22300.00" id="e2_L601_1_4" sampledSeconds="153.60" nVehEntered="9" nVehLeft="8" nVehSeen="10" meanSpeed="11.59" meanTimeLoss="1.12" meanOccupancy="2.03" maxOccupancy="4.10" meanMaxJamLengthInVehicles="0.00" meanMaxJamLengthInMeters="0.00" maxJamLengthInVehicles="0" maxJamLengthInMeters="0.00" jamLengthInVehiclesSum="0" jamLengthInMetersSum="0.00" meanHaltingDuration="0.00" maxHaltingDuration="0.00" haltingDurationSum="0.00" meanIntervalHaltingDuration="0.00" maxIntervalHaltingDuration="0.00" intervalHaltingDurationSum="0.00" startedHalts="0.00" meanVehicleNumber="1.58" maxVehicleNumber="3" />
   <interval begin="22300.00" end="22400.00" id="e2_L601_1_4" sampledSeconds="112.65" nVehEntered="5" nVehLeft="6" nVehSeen="7" meanSpeed="11.44" meanTimeLoss="1.36" meanOccupancy="1.46" maxOccupancy="4.10" meanMaxJamLengthInVehicles="0.00" meanMaxJamLengthInMeters="0.00" maxJamLengthInVehicles="0" maxJamLengthInMeters="0.00" jamLengthInVehiclesSum="0" jamLengthInMetersSum="0.00" meanHaltingDuration="0.00" maxHaltingDuration="0.00" haltingDurationSum="0.00" meanIntervalHaltingDuration="0.00" maxIntervalHaltingDuration="0.00" intervalHaltingDurationSum="0.00" startedHalts="0.00" meanVehicleNumber="1.16" maxVehicleNumber="3" />
   <interval begin="22400.00" end="22500.00" id="e2_L601_1_4" sampledSeconds="118.64" nVehEntered="6" nVehLeft="5" nVehSeen="7" meanSpeed="11.44" meanTimeLoss="1.43" meanOccupancy="1.56" maxOccupancy="2.73" meanMaxJamLengthInVehicles="0.00" meanMaxJamLengthInMeters="0.00" maxJamLengthInVehicles="0" maxJamLengthInMeters="0.00" jamLengthInVehiclesSum="0" jamLengthInMetersSum="0.00" meanHaltingDuration="0.00" maxHaltingDuration="0.00" haltingDurationSum="0.00" meanIntervalHaltingDuration="0.00" maxIntervalHaltingDuration="0.00" intervalHaltingDurationSum="0.00" startedHalts="0.00" meanVehicleNumber="1.21" maxVehicleNumber="3" />
   <interval begin="22500.00" end="22600.00" id="e2_L601_1_4" sampledSeconds="92.27" nVehEntered="5" nVehLeft="5" nVehSeen="7" meanSpeed="11.40" meanTimeLoss="1.16" meanOccupancy="1.22" maxOccupancy="2.73" meanMaxJamLengthInVehicles="0.00" meanMaxJamLengthInMeters="0.00" maxJamLengthInVehicles="0" maxJamLengthInMeters="0.00" jamLengthInVehiclesSum="0" jamLengthInMetersSum="0.00" meanHaltingDuration="0.00" maxHaltingDuration="0.00" haltingDurationSum="0.00" meanIntervalHaltingDuration="0.00" maxIntervalHaltingDuration="0.00" intervalHaltingDurationSum="0.00" startedHalts="0.00" meanVehicleNumber="0.94" maxVehicleNumber="2" />
   <interval begin="22600.00" end="22700.00" id="e2_L601_1_4" sampledSeconds="42.96" nVehEntered="1" nVehLeft="3" nVehSeen="3" meanSpeed="11.70" meanTimeLoss="0.92" meanOccupancy="0.56" maxOccupancy="2.73" meanMaxJamLengthInVehicles="0.00" meanMaxJamLengthInMeters="0.00" maxJamLengthInVehicles="0" maxJamLengthInMeters="0.00" jamLengthInVehiclesSum="0" jamLengthInMetersSum="0.00" meanHaltingDuration="0.00" maxHaltingDuration="0.00" haltingDurationSum="0.00" meanIntervalHaltingDuration="0.00" maxIntervalHaltingDuration="0.00" intervalHaltingDurationSum="0.00" startedHalts="0.00" meanVehicleNumber="0.44" maxVehicleNumber="2" />
   <interval begin="22700.00" end="22800.00" id="e2_L601_1_4" sampledSeconds="38.13" nVehEntered="2" nVehLeft="1" nVehSeen="2" meanSpeed="11.80" meanTimeLoss="1.06" meanOccupancy="0.51" maxOccupancy="1.37" meanMaxJamLengthInVehicles="0.00" meanMaxJamLengthInMeters="0.00" maxJamLengthInVehicles="0" maxJamLengthInMeters="0.00" jamLengthInVehiclesSum="0" jamLengthInMetersSum="0.00" meanHaltingDuration="0.00" maxHaltingDuration="0.00" haltingDurationSum="0.00" meanIntervalHaltingDuration="0.00" maxIntervalHaltingDuration="0.00" intervalHaltingDurationSum="0.00" startedHalts="0.00" meanVehicleNumber="0.39" maxVehicleNumber="1" />
   <interval begin="22800.00" end="22900.00" id="e2_L601_1_4" sampledSeconds="72.03" nVehEntered="4" nVehLeft="5" nVehSeen="5" meanSpeed="11.72" meanTimeLoss="0.90" meanOccupancy="0.95" maxOccupancy="2.73" meanMaxJamLengthInVehicles="0.00" meanMaxJamLengthInMeters="0.00" maxJamLengthInVehicles="0" maxJamLengthInMeters="0.00" jamLengthInVehiclesSum="0" jamLengthInMetersSum="0.00" meanHaltingDuration="0.00" maxHaltingDuration="0.00" haltingDurationSum="0.00" meanIntervalHaltingDuration="0.00" maxIntervalHaltingDuration="0.00" intervalHaltingDurationSum="0.00" startedHalts="0.00" meanVehicleNumber="0.73" maxVehicleNumber="2" />
   <interval begin="22900.00" end="23000.00" id="e2_L601_1_4" sampledSeconds="54.93" nVehEntered="2" nVehLeft="2" nVehSeen="2" meanSpeed="11.70" meanTimeLoss="1.76" meanOccupancy="0.73" maxOccupancy="2.73" meanMaxJamLengthInVehicles="0.00" meanMaxJamLengthInMeters="0.00" maxJamLengthInVehicles="0" maxJamLengthInMeters="0.00" jamLengthInVehiclesSum="0" jamLengthInMetersSum="0.00" meanHaltingDuration="0.00" maxHaltingDuration="0.00" haltingDurationSum="0.00" meanIntervalHaltingDuration="0.00" maxIntervalHaltingDuration="0.00" intervalHaltingDurationSum="0.00" startedHalts="0.00" meanVehicleNumber="0.56" maxVehicleNumber="2" />
   <interval begin="23000.00" end="23100.00" id="e2_L601_1_4" sampledSeconds="109.94" nVehEntered="4" nVehLeft="3" nVehSeen="4" meanSpeed="11.69" meanTimeLoss="1.78" meanOccupancy="1.48" maxOccupancy="2.73" meanMaxJamLengthInVehicles="0.00" meanMaxJamLengthInMeters="0.00" maxJamLengthInVehicles="0" maxJamLengthInMeters="0.00" jamLengthInVehiclesSum="0" jamLengthInMetersSum="0.00" meanHaltingDuration="0.00" maxHaltingDuration="0.00" haltingDurationSum="0.00" meanIntervalHaltingDuration="0.00" maxIntervalHaltingDuration="0.00" intervalHaltingDurationSum="0.00" startedHalts="0.00" meanVehicleNumber="1.11" maxVehicleNumber="2" />
   <interval begin="23100.00" end="23200.00" id="e2_L601_1_4" sampledSeconds="56.66" nVehEntered="2" nVehLeft="3" nVehSeen="3" meanSpeed="11.73" meanTimeLoss="1.16" meanOccupancy="0.75" maxOccupancy="1.37" meanMaxJamLengthInVehicles="0.00" meanMaxJamLengthInMeters="0.00" maxJamLengthInVehicles="0" maxJamLengthInMeters="0.00" jamLengthInVehiclesSum="0" jamLengthInMetersSum="0.00" meanHaltingDuration="0.00" maxHaltingDuration="0.00" haltingDurationSum="0.00" meanIntervalHaltingDuration="0.00" maxIntervalHaltingDuration="0.00" intervalHaltingDurationSum="0.00" startedHalts="0.00" meanVehicleNumber="0.59" maxVehicleNumber="1" />
   <interval begin="23200.00" end="23300.00" id="e2_L601_1_4" sampledSeconds="37.00" nVehEntered="3" nVehLeft="1" nVehSeen="3" meanSpeed="11.55" meanTimeLoss="0.70" meanOccupancy="0.51" maxOccupancy="2.73" meanMaxJamLengthInVehicles="0.00" meanMaxJamLengthInMeters="0.00" maxJamLengthInVehicles="0" maxJamLengthInMeters="0.00" jamLengthInVehiclesSum="0" jamLengthInMetersSum="0.00" meanHaltingDuration="0.00" maxHaltingDuration="0.00" haltingDurationSum="0.00" meanIntervalHaltingDuration="0.00" maxIntervalHaltingDuration="0.00" intervalHaltingDurationSum="0.00" startedHalts="0.00" meanVehicleNumber="0.37" maxVehicleNumber="2" />
   <interval begin="23300.00" end="23400.00" id="e2_L601_1_4" sampledSeconds="57.92" nVehEntered="2" nVehLeft="3" nVehSeen="4" meanSpeed="11.72" meanTimeLoss="0.90" meanOccupancy="0.77" maxOccupancy="2.73" meanMaxJamLengthInVehicles="0.00" meanMaxJamLengthInMeters="0.00" maxJamLengthInVehicles="0" maxJamLengthInMeters="0.00" jamLengthInVehiclesSum="0" jamLengthInMetersSum="0.00" meanHaltingDuration="0.00" maxHaltingDuration="0.00" haltingDurationSum="0.00" meanIntervalHaltingDuration="0.00" maxIntervalHaltingDuration="0.00" intervalHaltingDurationSum="0.00" startedHalts="0.00" meanVehicleNumber="0.59" maxVehicleNumber="2" />
   <interval begin="23400.00" end="23500.00" id="e2_L601_1_4" sampledSeconds="22.23" nVehEntered="0" nVehLeft="1" nVehSeen="1" meanSpeed="11.81" meanTimeLoss="1.23" meanOccupancy="0.29" maxOccupancy="1.37" meanMaxJamLengthInVehicles="0.00" meanMaxJamLengthInMeters="0.00" maxJamLengthInVehicles="0" maxJamLengthInMeters="0.00" jamLengthInVehiclesSum="0" jamLengthInMetersSum="0.00" meanHaltingDuration="0.00" maxHaltingDuration="0.00" haltingDurationSum="0.00" meanIntervalHaltingDuration="0.00" maxIntervalHaltingDuration="0.00" intervalHaltingDurationSum="0.00" startedHalts="0.00" meanVehicleNumber="0.23" maxVehicleNumber="1" />
   <interval begin="23500.00" end="23600.00" id="e2_L601_1_4" sampledSeconds="54.42" nVehEntered="3" nVehLeft="1" nVehSeen="3" meanSpeed="11.78" meanTimeLoss="1.05" meanOccupancy="0.74" maxOccupancy="2.73" meanMaxJamLengthInVehicles="0.00" meanMaxJamLengthInMeters="0.00" maxJamLengthInVehicles="0" maxJamLengthInMeters="0.00" jamLengthInVehiclesSum="0" jamLengthInMetersSum="0.00" meanHaltingDuration="0.00" maxHaltingDuration="0.00" haltingDurationSum="0.00" meanIntervalHaltingDuration="0.00" maxIntervalHaltingDuration="0.00" intervalHaltingDurationSum="0.00" startedHalts="0.00" meanVehicleNumber="0.55" maxVehicleNumber="2" />
   <interval begin="23600.00" end="23700.00" id="e2_L601_1_4" sampledSeconds="29.65" nVehEntered="0" nVehLeft="2" nVehSeen="2" meanSpeed="11.64" meanTimeLoss="1.02" meanOccupancy="0.38" maxOccupancy="2.73" meanMaxJamLengthInVehicles="0.00" meanMaxJamLengthInMeters="0.00" maxJamLengthInVehicles="0" maxJamLengthInMeters="0.00" jamLengthInVehiclesSum="0" jamLengthInMetersSum="0.00" meanHaltingDuration="0.00" maxHaltingDuration="0.00" haltingDurationSum="0.00" meanIntervalHaltingDuration="0.00" maxIntervalHaltingDuration="0.00" intervalHaltingDurationSum="0.00" startedHalts="0.00" meanVehicleNumber="0.30" maxVehicleNumber="2" />
   <interval begin="23700.00" end="23800.00" id="e2_L601_1_4" sampledSeconds="77.74" nVehEntered="3" nVehLeft="3" nVehSeen="3" meanSpeed="11.78" meanTimeLoss="1.49" meanOccupancy="1.04" maxOccupancy="2.73" meanMaxJamLengthInVehicles="0.00" meanMaxJamLengthInMeters="0.00" maxJamLengthInVehicles="0" maxJamLengthInMeters="0.00" jamLengthInVehiclesSum="0" jamLengthInMetersSum="0.00" meanHaltingDuration="0.00" maxHaltingDuration="0.00" haltingDurationSum="0.00" meanIntervalHaltingDuration="0.00" maxIntervalHaltingDuration="0.00" intervalHaltingDurationSum="0.00" startedHalts="0.00" meanVehicleNumber="0.80" maxVehicleNumber="2" />
   <interval begin="23800.00" end="23900.00" id="e2_L601_1_4" sampledSeconds="27.97" nVehEntered="1" nVehLeft="1" nVehSeen="1" meanSpeed="11.69" meanTimeLoss="1.82" meanOccupancy="0.37" maxOccupancy="1.37" meanMaxJamLengthInVehicles="0.00" meanMaxJamLengthInMeters="0.00" maxJamLengthInVehicles="0" maxJamLengthInMeters="0.00" jamLengthInVehiclesSum="0" jamLengthInMetersSum="0.00" meanHaltingDuration="0.00" maxHaltingDuration="0.00" haltingDurationSum="0.00" meanIntervalHaltingDuration="0.00" maxIntervalHaltingDuration="0.00" intervalHaltingDurationSum="0.00" startedHalts="0.00" meanVehicleNumber="0.28" maxVehicleNumber="1" />
   <interval begin="23900.00" end="24000.00" id="e2_L601_1_4" sampledSeconds="97.54" nVehEntered="5" nVehLeft="4" nVehSeen="5" meanSpeed="11.77" meanTimeLoss="1.14" meanOccupancy="1.30" maxOccupancy="2.73" meanMaxJamLengthInVehicles="0.00" meanMaxJamLengthInMeters="0.00" maxJamLengthInVehicles="0" maxJamLengthInMeters="0.00" jamLengthInVehiclesSum="0" jamLengthInMetersSum="0.00" meanHaltingDuration="0.00" maxHaltingDuration="0.00" haltingDurationSum="0.00" meanIntervalHaltingDuration="0.00" maxIntervalHaltingDuration="0.00" intervalHaltingDurationSum="0.00" startedHalts="0.00" meanVehicleNumber="1.00" maxVehicleNumber="2" />
   <interval begin="24000.00" end="24100.00" id="e2_L601_1_4" sampledSeconds="12.28" nVehEntered="1" nVehLeft="2" nVehSeen="2" meanSpeed="10.87" meanTimeLoss="0.54" meanOccupancy="0.16" maxOccupancy="1.37" meanMaxJamLengthInVehicles="0.00" meanMaxJamLengthInMeters="0.00" maxJamLengthInVehicles="0" maxJamLengthInMeters="0.00" jamLengthInVehiclesSum="0" jamLengthInMetersSum="0.00" meanHaltingDuration="0.00" maxHaltingDuration="0.00" haltingDurationSum="0.00" meanIntervalHaltingDuration="0.00" maxIntervalHaltingDuration="0.00" intervalHaltingDurationSum="0.00" startedHalts="0.00" meanVehicleNumber="0.13" maxVehicleNumber="1" />
   <interval begin="24100.00" end="24200.00" id="e2_L601_1_4" sampledSeconds="8.00" nVehEntered="1" nVehLeft="0" nVehSeen="1" meanSpeed="11.66" meanTimeLoss="0.54" meanOccupancy="0.11" maxOccupancy="1.37" meanMaxJamLengthInVehicles="0.00" meanMaxJamLengthInMeters="0.00" maxJamLengthInVehicles="0" maxJamLengthInMeters="0.00" jamLengthInVehiclesSum="0" jamLengthInMetersSum="0.00" meanHaltingDuration="0.00" maxHaltingDuration="0.00" haltingDurationSum="0.00" meanIntervalHaltingDuration="0.00" maxIntervalHaltingDuration="0.00" intervalHaltingDurationSum="0.00" startedHalts="0.00" meanVehicleNumber="0.08" maxVehicleNumber="1" />
   <interval begin="24200.00" end="24300.00" id="e2_L601_1_4" sampledSeconds="45.32" nVehEntered="1" nVehLeft="2" nVehSeen="2" meanSpeed="11.76" meanTimeLoss="1.34" meanOccupancy="0.60" maxOccupancy="1.37" meanMaxJamLengthInVehicles="0.00" meanMaxJamLengthInMeters="0.00" maxJamLengthInVehicles="0" maxJamLengthInMeters="0.00" jamLengthInVehiclesSum="0" jamLengthInMetersSum="0.00" meanHaltingDuration="0.00" maxHaltingDuration="0.00" haltingDurationSum="0.00" meanIntervalHaltingDuration="0.00" maxIntervalHaltingDuration="0.00" intervalHaltingDurationSum="0.00" startedHalts="0.00" meanVehicleNumber="0.46" maxVehicleNumber="1" />
   <interval begin="24300.00" end="24400.00" id="e2_L601_1_4" sampledSeconds="33.30" nVehEntered="2" nVehLeft="2" nVehSeen="2" meanSpeed="11.82" meanTimeLoss="0.90" meanOccupancy="0.43" maxOccupancy="2.73" meanMaxJamLengthInVehicles="0.00" meanMaxJamLengthInMeters="0.00" maxJamLengthInVehicles="0" maxJamLengthInMeters="0.00" jamLengthInVehiclesSum="0" jamLengthInMetersSum="0.00" meanHaltingDuration="0.00" maxHaltingDuration="0.00" haltingDurationSum="0.00" meanIntervalHaltingDuration="0.00" maxIntervalHaltingDuration="0.00" intervalHaltingDurationSum="0.00" startedHalts="0.00" meanVehicleNumber="0.35" maxVehicleNumber="2" />
   <interval begin="24400.00" end="24500.00" id="e2_L601_1_4" sampledSeconds="78.85" nVehEntered="3" nVehLeft="2" nVehSeen="3" meanSpeed="11.71" meanTimeLoss="1.51" meanOccupancy="1.05" maxOccupancy="2.73" meanMaxJamLengthInVehicles="0.00" meanMaxJamLengthInMeters="0.00" maxJamLengthInVehicles="0" maxJamLengthInMeters="0.00" jamLengthInVehiclesSum="0" jamLengthInMetersSum="0.00" meanHaltingDuration="0.00" maxHaltingDuration="0.00" haltingDurationSum="0.00" meanIntervalHaltingDuration="0.00" maxIntervalHaltingDuration="0.00" intervalHaltingDurationSum="0.00" startedHalts="0.00" meanVehicleNumber="0.80" maxVehicleNumber="2" />
   <interval begin="24500.00" end="24600.00" id="e2_L601_1_4" sampledSeconds="69.72" nVehEntered="3" nVehLeft="4" nVehSeen="4" meanSpeed="11.58" meanTimeLoss="1.11" meanOccupancy="0.93" maxOccupancy="2.73" meanMaxJamLengthInVehicles="0.00" meanMaxJamLengthInMeters="0.00" maxJamLengthInVehicles="0" maxJamLengthInMeters="0.00" jamLengthInVehiclesSum="0" jamLengthInMetersSum="0.00" meanHaltingDuration="0.00" maxHaltingDuration="0.00" haltingDurationSum="0.00" meanIntervalHaltingDuration="0.00" maxIntervalHaltingDuration="0.00" intervalHaltingDurationSum="0.00" startedHalts="0.00" meanVehicleNumber="0.71" maxVehicleNumber="2" />
   <interval begin="24600.00" end="24700.00" id="e2_L601_1_4" sampledSeconds="26.95" nVehEntered="2" nVehLeft="1" nVehSeen="2" meanSpeed="11.82" meanTimeLoss="0.74" meanOccupancy="0.36" maxOccupancy="1.37" meanMaxJamLengthInVehicles="0.00" meanMaxJamLengthInMeters="0.00" maxJamLengthInVehicles="0" maxJamLengthInMeters="0.00" jamLengthInVehiclesSum="0" jamLengthInMetersSum="0.00" meanHaltingDuration="0.00" maxHaltingDuration="0.00" haltingDurationSum="0.00" meanIntervalHaltingDuration="0.00" maxIntervalHaltingDuration="0.00" intervalHaltingDurationSum="0.00" startedHalts="0.00" meanVehicleNumber="0.27" maxVehicleNumber="1" />
   <interval begin="24700.00" end="24800.00" id="e2_L601_1_4" sampledSeconds="101.37" nVehEntered="5" nVehLeft="6" nVehSeen="6" meanSpeed="11.44" meanTimeLoss="1.43" meanOccupancy="1.35" maxOccupancy="4.10" meanMaxJamLengthInVehicles="0.00" meanMaxJamLengthInMeters="0.00" maxJamLengthInVehicles="0" maxJamLengthInMeters="0.00" jamLengthInVehiclesSum="0" jamLengthInMetersSum="0.00" meanHaltingDuration="0.00" maxHaltingDuration="0.00" haltingDurationSum="0.00" meanIntervalHaltingDuration="0.00" maxIntervalHaltingDuration="0.00" intervalHaltingDurationSum="0.00" startedHalts="0.00" meanVehicleNumber="1.03" maxVehicleNumber="3" />
   <interval begin="24800.00" end="24900.00" id="e2_L601_1_4" sampledSeconds="54.09" nVehEntered="2" nVehLeft="2" nVehSeen="2" meanSpeed="11.65" meanTimeLoss="1.83" meanOccupancy="0.72" maxOccupancy="2.73" meanMaxJamLengthInVehicles="0.00" meanMaxJamLengthInMeters="0.00" maxJamLengthInVehicles="0" maxJamLengthInMeters="0.00" jamLengthInVehiclesSum="0" jamLengthInMetersSum="0.00" meanHaltingDuration="0.00" maxHaltingDuration="0.00" haltingDurationSum="0.00" meanIntervalHaltingDuration="0.00" maxIntervalHaltingDuration="0.00" intervalHaltingDurationSum="0.00" startedHalts="0.00" meanVehicleNumber="0.55" maxVehicleNumber="2" />
   <interval begin="24900.00" end="25000.00" id="e2_L601_1_4" sampledSeconds="0.00" nVehEntered="0" nVehLeft="0" nVehSeen="0" meanSpeed="-1.00" meanTimeLoss="-1.00" meanOccupancy="0.00" maxOccupancy="0.00" meanMaxJamLengthInVehicles="0.00" meanMaxJamLengthInMeters="0.00" maxJamLengthInVehicles="0" maxJamLengthInMeters="0.00" jamLengthInVehiclesSum="0" jamLengthInMetersSum="0.00" meanHaltingDuration="0.00" maxHaltingDuration="0.00" haltingDurationSum="0.00" meanIntervalHaltingDuration="0.00" maxIntervalHaltingDuration="0.00" intervalHaltingDurationSum="0.00" startedHalts="0.00" meanVehicleNumber="0.00" maxVehicleNumber="0" />
   <interval begin="25000.00" end="25100.00" id="e2_L601_1_4" sampledSeconds="4.00" nVehEntered="1" nVehLeft="0" nVehSeen="1" meanSpeed="11.81" meanTimeLoss="0.22" meanOccupancy="0.05" maxOccupancy="1.37" meanMaxJamLengthInVehicles="0.00" meanMaxJamLengthInMeters="0.00" maxJamLengthInVehicles="0" maxJamLengthInMeters="0.00" jamLengthInVehiclesSum="0" jamLengthInMetersSum="0.00" meanHaltingDuration="0.00" maxHaltingDuration="0.00" haltingDurationSum="0.00" meanIntervalHaltingDuration="0.00" maxIntervalHaltingDuration="0.00" intervalHaltingDurationSum="0.00" startedHalts="0.00" meanVehicleNumber="0.04" maxVehicleNumber="1" />
   <interval begin="25100.00" end="25200.00" id="e2_L601_1_4" sampledSeconds="69.33" nVehEntered="2" nVehLeft="3" nVehSeen="3" meanSpeed="11.46" meanTimeLoss="1.86" meanOccupancy="0.92" maxOccupancy="1.37" meanMaxJamLengthInVehicles="0.00" meanMaxJamLengthInMeters="0.00" maxJamLengthInVehicles="0" maxJamLengthInMeters="0.00" jamLengthInVehiclesSum="0" jamLengthInMetersSum="0.00" meanHaltingDuration="0.00" maxHaltingDuration="0.00" haltingDurationSum="0.00" meanIntervalHaltingDuration="0.00" maxIntervalHaltingDuration="0.00" intervalHaltingDurationSum="0.00" startedHalts="0.00" meanVehicleNumber="0.70" maxVehicleNumber="2" />
   <interval begin="25200.00" end="25300.00" id="e2_L601_1_4" sampledSeconds="83.72" nVehEntered="3" nVehLeft="3" nVehSeen="3" meanSpeed="11.64" meanTimeLoss="1.93" meanOccupancy="1.11" maxOccupancy="2.73" meanMaxJamLengthInVehicles="0.00" meanMaxJamLengthInMeters="0.00" maxJamLengthInVehicles="0" maxJamLengthInMeters="0.00" jamLengthInVehiclesSum="0" jamLengthInMetersSum="0.00" meanHaltingDuration="0.00" maxHaltingDuration="0.00" haltingDurationSum="0.00" meanIntervalHaltingDuration="0.00" maxIntervalHaltingDuration="0.00" intervalHaltingDurationSum="0.00" startedHalts="0.00" meanVehicleNumber="0.85" maxVehicleNumber="2" />
   <interval begin="25300.00" end="25400.00" id="e2_L601_1_4" sampledSeconds="26.47" nVehEntered="3" nVehLeft="2" nVehSeen="3" meanSpeed="11.66" meanTimeLoss="0.59" meanOccupancy="0.35" maxOccupancy="1.37" meanMaxJamLengthInVehicles="0.00" meanMaxJamLengthInMeters="0.00" maxJamLengthInVehicles="0" maxJamLengthInMeters="0.00" jamLengthInVehiclesSum="0" jamLengthInMetersSum="0.00" meanHaltingDuration="0.00" maxHaltingDuration="0.00" haltingDurationSum="0.00" meanIntervalHaltingDuration="0.00" maxIntervalHaltingDuration="0.00" intervalHaltingDurationSum="0.00" startedHalts="0.00" meanVehicleNumber="0.27" maxVehicleNumber="1" />
   <interval begin="25400.00" end="25500.00" id="e2_L601_1_4" sampledSeconds="31.10" nVehEntered="1" nVehLeft="2" nVehSeen="2" meanSpeed="11.78" meanTimeLoss="0.90" meanOccupancy="0.40" maxOccupancy="1.37" meanMaxJamLengthInVehicles="0.00" meanMaxJamLengthInMeters="0.00" maxJamLengthInVehicles="0" maxJamLengthInMeters="0.00" jamLengthInVehiclesSum="0" jamLengthInMetersSum="0.00" meanHaltingDuration="0.00" maxHaltingDuration="0.00" haltingDurationSum="0.00" meanIntervalHaltingDuration="0.00" maxIntervalHaltingDuration="0.00" intervalHaltingDurationSum="0.00" startedHalts="0.00" meanVehicleNumber="0.32" maxVehicleNumber="1" />
   <interval begin="25500.00" end="25600.00" id="e2_L601_1_4" sampledSeconds="31.08" nVehEntered="2" nVehLeft="1" nVehSeen="2" meanSpeed="11.61" meanTimeLoss="1.11" meanOccupancy="0.41" maxOccupancy="1.37" meanMaxJamLengthInVehicles="0.00" meanMaxJamLengthInMeters="0.00" maxJamLengthInVehicles="0" maxJamLengthInMeters="0.00" jamLengthInVehiclesSum="0" jamLengthInMetersSum="0.00" meanHaltingDuration="0.00" maxHaltingDuration="0.00" haltingDurationSum="0.00" meanIntervalHaltingDuration="0.00" maxIntervalHaltingDuration="0.00" intervalHaltingDurationSum="0.00" startedHalts="0.00" meanVehicleNumber="0.32" maxVehicleNumber="1" />
   <interval begin="25600.00" end="25700.00" id="e2_L601_1_4" sampledSeconds="107.54" nVehEntered="4" nVehLeft="4" nVehSeen="5" meanSpeed="11.83" meanTimeLoss="1.15" meanOccupancy="1.44" maxOccupancy="2.73" meanMaxJamLengthInVehicles="0.00" meanMaxJamLengthInMeters="0.00" maxJamLengthInVehicles="0" maxJamLengthInMeters="0.00" jamLengthInVehiclesSum="0" jamLengthInMetersSum="0.00" meanHaltingDuration="0.00" maxHaltingDuration="0.00" haltingDurationSum="0.00" meanIntervalHaltingDuration="0.00" maxIntervalHaltingDuration="0.00" intervalHaltingDurationSum="0.00" startedHalts="0.00" meanVehicleNumber="1.10" maxVehicleNumber="2" />
   <interval begin="25700.00" end="25800.00" id="e2_L601_1_4" sampledSeconds="76.73" nVehEntered="2" nVehLeft="3" nVehSeen="3" meanSpeed="11.75" meanTimeLoss="1.54" meanOccupancy="1.02" maxOccupancy="2.73" meanMaxJamLengthInVehicles="0.00" meanMaxJamLengthInMeters="0.00" maxJamLengthInVehicles="0" maxJamLengthInMeters="0.00" jamLengthInVehiclesSum="0" jamLengthInMetersSum="0.00" meanHaltingDuration="0.00" maxHaltingDuration="0.00" haltingDurationSum="0.00" meanIntervalHaltingDuration="0.00" maxIntervalHaltingDuration="0.00" intervalHaltingDurationSum="0.00" startedHalts="0.00" meanVehicleNumber="0.78" maxVehicleNumber="2" />
   <interval begin="25800.00" end="25900.00" id="e2_L601_1_4" sampledSeconds="50.88" nVehEntered="2" nVehLeft="2" nVehSeen="2" meanSpeed="11.43" meanTimeLoss="2.17" meanOccupancy="0.68" maxOccupancy="2.73" meanMaxJamLengthInVehicles="0.00" meanMaxJamLengthInMeters="0.00" maxJamLengthInVehicles="0" maxJamLengthInMeters="0.00" jamLengthInVehiclesSum="0" jamLengthInMetersSum="0.00" meanHaltingDuration="0.00" maxHaltingDuration="0.00" haltingDurationSum="0.00" meanIntervalHaltingDuration="0.00" maxIntervalHaltingDuration="0.00" intervalHaltingDurationSum="0.00" startedHalts="0.00" meanVehicleNumber="0.52" maxVehicleNumber="2" />
   <interval begin="25900.00" end="26000.00" id="e2_L601_1_4" sampledSeconds="46.15" nVehEntered="2" nVehLeft="2" nVehSeen="2" meanSpeed="11.67" meanTimeLoss="1.53" meanOccupancy="0.61" maxOccupancy="2.73" meanMaxJamLengthInVehicles="0.00" meanMaxJamLengthInMeters="0.00" maxJamLengthInVehicles="0" maxJamLengthInMeters="0.00" jamLengthInVehiclesSum="0" jamLengthInMetersSum="0.00" meanHaltingDuration="0.00" maxHaltingDuration="0.00" haltingDurationSum="0.00" meanIntervalHaltingDuration="0.00" maxIntervalHaltingDuration="0.00" intervalHaltingDurationSum="0.00" startedHalts="0.00" meanVehicleNumber="0.47" maxVehicleNumber="2" />