<?xml version="1.0" encoding="UTF-8"?>

<!-- generated on Sun Feb 17 15:57:00 2019 by 
<configuration xmlns:xsi="http://www.w3.org/2001/XMLSchema-instance" xsi:noNamespaceSchemaLocation="http://sumo.dlr.de/xsd/Configuration.xsd">

    <input>
        <net-file value="/home/sda/Documents/sumo-sathorn-ray/models/sathorn-morning/sathorn_w_fixed_20160404.net.xml"/>
        <route-files value="/home/sda/Documents/sumo-sathorn-ray/models/sathorn-morning/Great-route/sathorn_w_20160422edit2.rou.xml"/>
        <additional-files value="/home/sda/Documents/sumo-sathorn-ray/models/sathorn-morning/sathon_wide_tls_20160418_edited.add.xml,/home/sda/Documents/sumo-sathorn-ray/detectors/sathorn_w_detectors.add.xml"/>
    </input>

    <time>
        <begin value="21600"/>
        <end value="32400"/>
        <step-length value="1"/>
    </time>

    <processing>
        <no-internal-links value="true"/>
        <ignore-junction-blocker value="-1"/>
        <time-to-teleport value="-1"/>
        <eager-insert value="true"/>
        <time-to-impatience value="300"/>
    </processing>

    <report>
        <no-warnings value="true"/>
    </report>

    <random_number>
        <random value="false"/>
        <seed value="20"/>
    </random_number>

    <gui_only>
        <gui-settings-file value="/home/sda/Documents/sumo-sathorn-ray/gui-settings/gui-settings-file-surasak.xml"/>
        <quit-on-end value="true"/>
        <start value="true"/>
        <tracker-interval value="1"/>
    </gui_only>

</configuration>
-->

<detector xmlns:xsi="http://www.w3.org/2001/XMLSchema-instance" xsi:noNamespaceSchemaLocation="http://sumo.dlr.de/xsd/det_e2_file.xsd">
   <interval begin="21600.00" end="21700.00" id="e2_L10009_0_2" sampledSeconds="0.00" nVehEntered="0" nVehLeft="0" nVehSeen="0" meanSpeed="-1.00" meanTimeLoss="-1.00" meanOccupancy="0.00" maxOccupancy="0.00" meanMaxJamLengthInVehicles="0.00" meanMaxJamLengthInMeters="0.00" maxJamLengthInVehicles="0" maxJamLengthInMeters="0.00" jamLengthInVehiclesSum="0" jamLengthInMetersSum="0.00" meanHaltingDuration="0.00" maxHaltingDuration="0.00" haltingDurationSum="0.00" meanIntervalHaltingDuration="0.00" maxIntervalHaltingDuration="0.00" intervalHaltingDurationSum="0.00" startedHalts="0.00" meanVehicleNumber="0.00" maxVehicleNumber="0" />
   <interval begin="21700.00" end="21800.00" id="e2_L10009_0_2" sampledSeconds="150.78" nVehEntered="8" nVehLeft="1" nVehSeen="8" meanSpeed="11.74" meanTimeLoss="1.15" meanOccupancy="1.65" maxOccupancy="8.64" meanMaxJamLengthInVehicles="0.00" meanMaxJamLengthInMeters="0.00" maxJamLengthInVehicles="0" maxJamLengthInMeters="0.00" jamLengthInVehiclesSum="0" jamLengthInMetersSum="0.00" meanHaltingDuration="0.00" maxHaltingDuration="0.00" haltingDurationSum="0.00" meanIntervalHaltingDuration="0.00" maxIntervalHaltingDuration="0.00" intervalHaltingDurationSum="0.00" startedHalts="0.00" meanVehicleNumber="1.54" maxVehicleNumber="8" />
   <interval begin="21800.00" end="21900.00" id="e2_L10009_0_2" sampledSeconds="762.78" nVehEntered="23" nVehLeft="21" nVehSeen="30" meanSpeed="11.80" meanTimeLoss="1.40" meanOccupancy="8.17" maxOccupancy="9.72" meanMaxJamLengthInVehicles="0.00" meanMaxJamLengthInMeters="0.00" maxJamLengthInVehicles="0" maxJamLengthInMeters="0.00" jamLengthInVehiclesSum="0" jamLengthInMetersSum="0.00" meanHaltingDuration="0.00" maxHaltingDuration="0.00" haltingDurationSum="0.00" meanIntervalHaltingDuration="0.00" maxIntervalHaltingDuration="0.00" intervalHaltingDurationSum="0.00" startedHalts="0.00" meanVehicleNumber="7.85" maxVehicleNumber="9" />
   <interval begin="21900.00" end="22000.00" id="e2_L10009_0_2" sampledSeconds="1119.05" nVehEntered="48" nVehLeft="38" nVehSeen="57" meanSpeed="11.68" meanTimeLoss="1.21" meanOccupancy="11.98" maxOccupancy="24.23" meanMaxJamLengthInVehicles="0.00" meanMaxJamLengthInMeters="0.00" maxJamLengthInVehicles="0" maxJamLengthInMeters="0.00" jamLengthInVehiclesSum="0" jamLengthInMetersSum="0.00" meanHaltingDuration="0.00" maxHaltingDuration="0.00" haltingDurationSum="0.00" meanIntervalHaltingDuration="0.00" maxIntervalHaltingDuration="0.00" intervalHaltingDurationSum="0.00" startedHalts="0.00" meanVehicleNumber="11.48" maxVehicleNumber="23" />
   <interval begin="22000.00" end="22100.00" id="e2_L10009_0_2" sampledSeconds="2332.64" nVehEntered="82" nVehLeft="78" nVehSeen="101" meanSpeed="10.85" meanTimeLoss="3.04" meanOccupancy="24.89" maxOccupancy="32.19" meanMaxJamLengthInVehicles="0.06" meanMaxJamLengthInMeters="0.27" maxJamLengthInVehicles="1" maxJamLengthInMeters="4.62" jamLengthInVehiclesSum="8" jamLengthInMetersSum="35.84" meanHaltingDuration="1.58" maxHaltingDuration="4.00" haltingDurationSum="19.00" meanIntervalHaltingDuration="1.58" maxIntervalHaltingDuration="4.00" intervalHaltingDurationSum="19.00" startedHalts="13.00" meanVehicleNumber="23.77" maxVehicleNumber="30" />
   <interval begin="22100.00" end="22200.00" id="e2_L10009_0_2" sampledSeconds="2216.03" nVehEntered="68" nVehLeft="57" nVehSeen="91" meanSpeed="7.36" meanTimeLoss="9.97" meanOccupancy="23.86" maxOccupancy="36.73" meanMaxJamLengthInVehicles="5.95" meanMaxJamLengthInMeters="34.40" maxJamLengthInVehicles="20" maxJamLengthInMeters="109.49" jamLengthInVehiclesSum="606" jamLengthInMetersSum="3493.20" meanHaltingDuration="22.57" maxHaltingDuration="60.00" haltingDurationSum="632.00" meanIntervalHaltingDuration="22.57" maxIntervalHaltingDuration="60.00" intervalHaltingDurationSum="632.00" startedHalts="32.00" meanVehicleNumber="22.44" maxVehicleNumber="35" />
   <interval begin="22200.00" end="22300.00" id="e2_L10009_0_2" sampledSeconds="5436.53" nVehEntered="88" nVehLeft="45" nVehSeen="122" meanSpeed="1.88" meanTimeLoss="37.85" meanOccupancy="58.80" maxOccupancy="83.19" meanMaxJamLengthInVehicles="42.10" meanMaxJamLengthInMeters="202.60" maxJamLengthInVehicles="70" maxJamLengthInMeters="305.68" jamLengthInVehiclesSum="4251" jamLengthInMetersSum="20480.00" meanHaltingDuration="66.50" maxHaltingDuration="160.00" haltingDurationSum="4921.00" meanIntervalHaltingDuration="58.15" maxIntervalHaltingDuration="100.00" intervalHaltingDurationSum="4303.00" startedHalts="53.00" meanVehicleNumber="54.59" maxVehicleNumber="77" />
   <interval begin="22300.00" end="22400.00" id="e2_L10009_0_2" sampledSeconds="9110.20" nVehEntered="47" nVehLeft="28" nVehSeen="124" meanSpeed="0.33" meanTimeLoss="71.54" meanOccupancy="98.05" maxOccupancy="102.75" meanMaxJamLengthInVehicles="77.59" meanMaxJamLengthInMeters="319.55" maxJamLengthInVehicles="93" maxJamLengthInMeters="389.76" jamLengthInVehiclesSum="8336" jamLengthInMetersSum="35057.44" meanHaltingDuration="64.66" maxHaltingDuration="209.00" haltingDurationSum="13384.00" meanIntervalHaltingDuration="40.90" maxIntervalHaltingDuration="100.00" intervalHaltingDurationSum="8467.00" startedHalts="140.00" meanVehicleNumber="91.25" maxVehicleNumber="96" />
   <interval begin="22400.00" end="22500.00" id="e2_L10009_0_2" sampledSeconds="9894.10" nVehEntered="26" nVehLeft="18" nVehSeen="122" meanSpeed="0.32" meanTimeLoss="79.02" meanOccupancy="106.34" maxOccupancy="111.70" meanMaxJamLengthInVehicles="57.88" meanMaxJamLengthInMeters="238.96" maxJamLengthInVehicles="98" maxJamLengthInMeters="400.59" jamLengthInVehiclesSum="8911" jamLengthInMetersSum="37622.31" meanHaltingDuration="38.64" maxHaltingDuration="139.00" haltingDurationSum="13487.00" meanIntervalHaltingDuration="26.10" maxIntervalHaltingDuration="100.00" intervalHaltingDurationSum="9110.00" startedHalts="271.00" meanVehicleNumber="99.02" maxVehicleNumber="105" />
   <interval begin="22500.00" end="22600.00" id="e2_L10009_0_2" sampledSeconds="10210.19" nVehEntered="10" nVehLeft="13" nVehSeen="114" meanSpeed="0.20" meanTimeLoss="88.10" meanOccupancy="109.55" maxOccupancy="113.57" meanMaxJamLengthInVehicles="76.37" meanMaxJamLengthInMeters="306.72" maxJamLengthInVehicles="105" maxJamLengthInMeters="428.57" jamLengthInVehiclesSum="9561" jamLengthInMetersSum="39593.16" meanHaltingDuration="49.91" maxHaltingDuration="156.00" haltingDurationSum="15971.00" meanIntervalHaltingDuration="30.46" maxIntervalHaltingDuration="100.00" intervalHaltingDurationSum="9747.00" startedHalts="224.00" meanVehicleNumber="102.15" maxVehicleNumber="106" />
   <interval begin="22600.00" end="22700.00" id="e2_L10009_0_2" sampledSeconds="10383.78" nVehEntered="21" nVehLeft="17" nVehSeen="122" meanSpeed="0.05" meanTimeLoss="84.74" meanOccupancy="111.61" maxOccupancy="112.61" meanMaxJamLengthInVehicles="100.98" meanMaxJamLengthInMeters="411.35" maxJamLengthInVehicles="105" maxJamLengthInMeters="427.53" jamLengthInVehiclesSum="10281" jamLengthInMetersSum="42109.12" meanHaltingDuration="102.92" maxHaltingDuration="216.00" haltingDurationSum="14100.00" meanIntervalHaltingDuration="75.17" maxIntervalHaltingDuration="100.00" intervalHaltingDurationSum="10299.00" startedHalts="47.00" meanVehicleNumber="103.94" maxVehicleNumber="106" />
   <interval begin="22700.00" end="22800.00" id="e2_L10009_0_2" sampledSeconds="10500.00" nVehEntered="0" nVehLeft="0" nVehSeen="105" meanSpeed="0.00" meanTimeLoss="100.00" meanOccupancy="112.61" maxOccupancy="112.61" meanMaxJamLengthInVehicles="105.00" meanMaxJamLengthInMeters="427.53" maxJamLengthInVehicles="105" maxJamLengthInMeters="427.53" jamLengthInVehiclesSum="10500" jamLengthInMetersSum="42752.90" meanHaltingDuration="221.79" maxHaltingDuration="316.00" haltingDurationSum="23288.00" meanIntervalHaltingDuration="100.00" maxIntervalHaltingDuration="100.00" intervalHaltingDurationSum="10500.00" startedHalts="0.00" meanVehicleNumber="105.00" maxVehicleNumber="105" />
   <interval begin="22800.00" end="22900.00" id="e2_L10009_0_2" sampledSeconds="10500.00" nVehEntered="0" nVehLeft="0" nVehSeen="105" meanSpeed="0.00" meanTimeLoss="100.00" meanOccupancy="112.61" maxOccupancy="112.61" meanMaxJamLengthInVehicles="105.00" meanMaxJamLengthInMeters="427.53" maxJamLengthInVehicles="105" maxJamLengthInMeters="427.53" jamLengthInVehiclesSum="10500" jamLengthInMetersSum="42752.90" meanHaltingDuration="321.79" maxHaltingDuration="416.00" haltingDurationSum="33788.00" meanIntervalHaltingDuration="100.00" maxIntervalHaltingDuration="100.00" intervalHaltingDurationSum="10500.00" startedHalts="0.00" meanVehicleNumber="105.00" maxVehicleNumber="105" />
   <interval begin="22900.00" end="23000.00" id="e2_L10009_0_2" sampledSeconds="10500.00" nVehEntered="0" nVehLeft="0" nVehSeen="105" meanSpeed="0.00" meanTimeLoss="100.00" meanOccupancy="112.61" maxOccupancy="112.61" meanMaxJamLengthInVehicles="105.00" meanMaxJamLengthInMeters="427.53" maxJamLengthInVehicles="105" maxJamLengthInMeters="427.53" jamLengthInVehiclesSum="10500" jamLengthInMetersSum="42752.90" meanHaltingDuration="421.79" maxHaltingDuration="516.00" haltingDurationSum="44288.00" meanIntervalHaltingDuration="100.00" maxIntervalHaltingDuration="100.00" intervalHaltingDurationSum="10500.00" startedHalts="0.00" meanVehicleNumber="105.00" maxVehicleNumber="105" />
   <interval begin="23000.00" end="23100.00" id="e2_L10009_0_2" sampledSeconds="10500.00" nVehEntered="0" nVehLeft="0" nVehSeen="105" meanSpeed="0.00" meanTimeLoss="100.00" meanOccupancy="112.61" maxOccupancy="112.61" meanMaxJamLengthInVehicles="105.00" meanMaxJamLengthInMeters="427.53" maxJamLengthInVehicles="105" maxJamLengthInMeters="427.53" jamLengthInVehiclesSum="10500" jamLengthInMetersSum="42752.90" meanHaltingDuration="521.79" maxHaltingDuration="616.00" haltingDurationSum="54788.00" meanIntervalHaltingDuration="100.00" maxIntervalHaltingDuration="100.00" intervalHaltingDurationSum="10500.00" startedHalts="0.00" meanVehicleNumber="105.00" maxVehicleNumber="105" />
   <interval begin="23100.00" end="23200.00" id="e2_L10009_0_2" sampledSeconds="10500.00" nVehEntered="0" nVehLeft="0" nVehSeen="105" meanSpeed="0.00" meanTimeLoss="100.00" meanOccupancy="112.61" maxOccupancy="112.61" meanMaxJamLengthInVehicles="105.00" meanMaxJamLengthInMeters="427.53" maxJamLengthInVehicles="105" maxJamLengthInMeters="427.53" jamLengthInVehiclesSum="10500" jamLengthInMetersSum="42752.90" meanHaltingDuration="621.79" maxHaltingDuration="716.00" haltingDurationSum="65288.00" meanIntervalHaltingDuration="100.00" maxIntervalHaltingDuration="100.00" intervalHaltingDurationSum="10500.00" startedHalts="0.00" meanVehicleNumber="105.00" maxVehicleNumber="105" />
   <interval begin="23200.00" end="23300.00" id="e2_L10009_0_2" sampledSeconds="10500.00" nVehEntered="0" nVehLeft="0" nVehSeen="105" meanSpeed="0.00" meanTimeLoss="100.00" meanOccupancy="112.61" maxOccupancy="112.61" meanMaxJamLengthInVehicles="105.00" meanMaxJamLengthInMeters="427.53" maxJamLengthInVehicles="105" maxJamLengthInMeters="427.53" jamLengthInVehiclesSum="10500" jamLengthInMetersSum="42752.90" meanHaltingDuration="721.79" maxHaltingDuration="816.00" haltingDurationSum="75788.00" meanIntervalHaltingDuration="100.00" maxIntervalHaltingDuration="100.00" intervalHaltingDurationSum="10500.00" startedHalts="0.00" meanVehicleNumber="105.00" maxVehicleNumber="105" />
   <interval begin="23300.00" end="23400.00" id="e2_L10009_0_2" sampledSeconds="10500.00" nVehEntered="0" nVehLeft="0" nVehSeen="105" meanSpeed="0.00" meanTimeLoss="100.00" meanOccupancy="112.61" maxOccupancy="112.61" meanMaxJamLengthInVehicles="105.00" meanMaxJamLengthInMeters="427.53" maxJamLengthInVehicles="105" maxJamLengthInMeters="427.53" jamLengthInVehiclesSum="10500" jamLengthInMetersSum="42752.90" meanHaltingDuration="821.79" maxHaltingDuration="916.00" haltingDurationSum="86288.00" meanIntervalHaltingDuration="100.00" maxIntervalHaltingDuration="100.00" intervalHaltingDurationSum="10500.00" startedHalts="0.00" meanVehicleNumber="105.00" maxVehicleNumber="105" />
   <interval begin="23400.00" end="23500.00" id="e2_L10009_0_2" sampledSeconds="10500.00" nVehEntered="0" nVehLeft="0" nVehSeen="105" meanSpeed="0.00" meanTimeLoss="100.00" meanOccupancy="112.61" maxOccupancy="112.61" meanMaxJamLengthInVehicles="105.00" meanMaxJamLengthInMeters="427.53" maxJamLengthInVehicles="105" maxJamLengthInMeters="427.53" jamLengthInVehiclesSum="10500" jamLengthInMetersSum="42752.90" meanHaltingDuration="921.79" maxHaltingDuration="1016.00" haltingDurationSum="96788.00" meanIntervalHaltingDuration="100.00" maxIntervalHaltingDuration="100.00" intervalHaltingDurationSum="10500.00" startedHalts="0.00" meanVehicleNumber="105.00" maxVehicleNumber="105" />
   <interval begin="23500.00" end="23600.00" id="e2_L10009_0_2" sampledSeconds="10500.00" nVehEntered="0" nVehLeft="0" nVehSeen="105" meanSpeed="0.00" meanTimeLoss="100.00" meanOccupancy="112.61" maxOccupancy="112.61" meanMaxJamLengthInVehicles="105.00" meanMaxJamLengthInMeters="427.53" maxJamLengthInVehicles="105" maxJamLengthInMeters="427.53" jamLengthInVehiclesSum="10500" jamLengthInMetersSum="42752.90" meanHaltingDuration="1021.79" maxHaltingDuration="1116.00" haltingDurationSum="107288.00" meanIntervalHaltingDuration="100.00" maxIntervalHaltingDuration="100.00" intervalHaltingDurationSum="10500.00" startedHalts="0.00" meanVehicleNumber="105.00" maxVehicleNumber="105" />
   <interval begin="23600.00" end="23700.00" id="e2_L10009_0_2" sampledSeconds="10500.00" nVehEntered="0" nVehLeft="0" nVehSeen="105" meanSpeed="0.00" meanTimeLoss="100.00" meanOccupancy="112.61" maxOccupancy="112.61" meanMaxJamLengthInVehicles="105.00" meanMaxJamLengthInMeters="427.53" maxJamLengthInVehicles="105" maxJamLengthInMeters="427.53" jamLengthInVehiclesSum="10500" jamLengthInMetersSum="42752.90" meanHaltingDuration="1121.79" maxHaltingDuration="1216.00" haltingDurationSum="117788.00" meanIntervalHaltingDuration="100.00" maxIntervalHaltingDuration="100.00" intervalHaltingDurationSum="10500.00" startedHalts="0.00" meanVehicleNumber="105.00" maxVehicleNumber="105" />
   <interval begin="23700.00" end="23800.00" id="e2_L10009_0_2" sampledSeconds="10500.00" nVehEntered="0" nVehLeft="0" nVehSeen="105" meanSpeed="0.00" meanTimeLoss="100.00" meanOccupancy="112.61" maxOccupancy="112.61" meanMaxJamLengthInVehicles="105.00" meanMaxJamLengthInMeters="427.53" maxJamLengthInVehicles="105" maxJamLengthInMeters="427.53" jamLengthInVehiclesSum="10500" jamLengthInMetersSum="42752.90" meanHaltingDuration="1221.79" maxHaltingDuration="1316.00" haltingDurationSum="128288.00" meanIntervalHaltingDuration="100.00" maxIntervalHaltingDuration="100.00" intervalHaltingDurationSum="10500.00" startedHalts="0.00" meanVehicleNumber="105.00" maxVehicleNumber="105" />
   <interval begin="23800.00" end="23900.00" id="e2_L10009_0_2" sampledSeconds="9872.65" nVehEntered="4" nVehLeft="17" nVehSeen="109" meanSpeed="0.38" meanTimeLoss="87.82" meanOccupancy="105.78" maxOccupancy="112.61" meanMaxJamLengthInVehicles="66.33" meanMaxJamLengthInMeters="265.63" maxJamLengthInVehicles="105" maxJamLengthInMeters="428.90" jamLengthInVehiclesSum="8363" jamLengthInMetersSum="34950.33" meanHaltingDuration="252.90" maxHaltingDuration="1385.00" haltingDurationSum="135808.00" meanIntervalHaltingDuration="16.34" maxIntervalHaltingDuration="92.00" intervalHaltingDurationSum="8777.00" startedHalts="438.00" meanVehicleNumber="98.78" maxVehicleNumber="105" />
   <interval begin="23900.00" end="24000.00" id="e2_L10009_0_2" sampledSeconds="9891.40" nVehEntered="40" nVehLeft="28" nVehSeen="132" meanSpeed="0.22" meanTimeLoss="73.60" meanOccupancy="106.66" maxOccupancy="113.44" meanMaxJamLengthInVehicles="72.52" meanMaxJamLengthInMeters="290.27" maxJamLengthInVehicles="105" maxJamLengthInMeters="425.67" jamLengthInVehiclesSum="9225" jamLengthInMetersSum="38559.41" meanHaltingDuration="32.78" maxHaltingDuration="103.00" haltingDurationSum="11311.00" meanIntervalHaltingDuration="27.39" maxIntervalHaltingDuration="100.00" intervalHaltingDurationSum="9450.00" startedHalts="269.00" meanVehicleNumber="99.05" maxVehicleNumber="106" />
   <interval begin="24000.00" end="24100.00" id="e2_L10009_0_2" sampledSeconds="10330.22" nVehEntered="8" nVehLeft="7" nVehSeen="112" meanSpeed="0.13" meanTimeLoss="91.30" meanOccupancy="111.49" maxOccupancy="112.94" meanMaxJamLengthInVehicles="80.15" meanMaxJamLengthInMeters="323.08" maxJamLengthInVehicles="105" maxJamLengthInMeters="426.26" jamLengthInVehiclesSum="10017" jamLengthInMetersSum="40829.04" meanHaltingDuration="73.11" maxHaltingDuration="190.00" haltingDurationSum="16597.00" meanIntervalHaltingDuration="44.66" maxIntervalHaltingDuration="100.00" intervalHaltingDurationSum="10139.00" startedHalts="130.00" meanVehicleNumber="103.34" maxVehicleNumber="107" />
   <interval begin="24100.00" end="24200.00" id="e2_L10009_0_2" sampledSeconds="9740.82" nVehEntered="3" nVehLeft="28" nVehSeen="108" meanSpeed="0.41" meanTimeLoss="87.25" meanOccupancy="105.02" maxOccupancy="113.44" meanMaxJamLengthInVehicles="85.14" meanMaxJamLengthInMeters="350.70" maxJamLengthInVehicles="105" maxJamLengthInMeters="426.26" jamLengthInVehiclesSum="8600" jamLengthInMetersSum="35493.77" meanHaltingDuration="124.27" maxHaltingDuration="257.00" haltingDurationSum="17522.00" meanIntervalHaltingDuration="61.23" maxIntervalHaltingDuration="100.00" intervalHaltingDurationSum="8633.00" startedHalts="38.00" meanVehicleNumber="97.50" maxVehicleNumber="106" />
   <interval begin="24200.00" end="24300.00" id="e2_L10009_0_2" sampledSeconds="8447.94" nVehEntered="92" nVehLeft="73" nVehSeen="172" meanSpeed="0.99" meanTimeLoss="45.22" meanOccupancy="91.24" maxOccupancy="106.96" meanMaxJamLengthInVehicles="43.96" meanMaxJamLengthInMeters="182.97" maxJamLengthInVehicles="95" maxJamLengthInMeters="397.36" jamLengthInVehiclesSum="5747" jamLengthInMetersSum="24619.27" meanHaltingDuration="26.28" maxHaltingDuration="254.00" haltingDurationSum="12667.00" meanIntervalHaltingDuration="12.78" maxIntervalHaltingDuration="84.00" intervalHaltingDurationSum="6159.00" startedHalts="446.00" meanVehicleNumber="84.85" maxVehicleNumber="101" />
   <interval begin="24300.00" end="24400.00" id="e2_L10009_0_2" sampledSeconds="10402.16" nVehEntered="20" nVehLeft="14" nVehSeen="119" meanSpeed="0.02" meanTimeLoss="87.27" meanOccupancy="111.75" maxOccupancy="112.37" meanMaxJamLengthInVehicles="103.53" meanMaxJamLengthInMeters="422.03" maxJamLengthInVehicles="105" maxJamLengthInMeters="426.48" jamLengthInVehiclesSum="10360" jamLengthInMetersSum="42235.20" meanHaltingDuration="136.38" maxHaltingDuration="184.00" haltingDurationSum="14593.00" meanIntervalHaltingDuration="96.92" maxIntervalHaltingDuration="100.00" intervalHaltingDurationSum="10370.00" startedHalts="15.00" meanVehicleNumber="104.13" maxVehicleNumber="107" />
   <interval begin="24400.00" end="24500.00" id="e2_L10009_0_2" sampledSeconds="10500.00" nVehEntered="0" nVehLeft="0" nVehSeen="105" meanSpeed="0.00" meanTimeLoss="100.00" meanOccupancy="112.37" maxOccupancy="112.37" meanMaxJamLengthInVehicles="105.00" meanMaxJamLengthInMeters="426.48" maxJamLengthInVehicles="105" maxJamLengthInMeters="426.48" jamLengthInVehiclesSum="10500" jamLengthInMetersSum="42648.03" meanHaltingDuration="238.91" maxHaltingDuration="284.00" haltingDurationSum="25086.00" meanIntervalHaltingDuration="100.00" maxIntervalHaltingDuration="100.00" intervalHaltingDurationSum="10500.00" startedHalts="0.00" meanVehicleNumber="105.00" maxVehicleNumber="105" />
   <interval begin="24500.00" end="24600.00" id="e2_L10009_0_2" sampledSeconds="10500.00" nVehEntered="0" nVehLeft="0" nVehSeen="105" meanSpeed="0.00" meanTimeLoss="100.00" meanOccupancy="112.37" maxOccupancy="112.37" meanMaxJamLengthInVehicles="105.00" meanMaxJamLengthInMeters="426.48" maxJamLengthInVehicles="105" maxJamLengthInMeters="426.48" jamLengthInVehiclesSum="10500" jamLengthInMetersSum="42648.03" meanHaltingDuration="338.91" maxHaltingDuration="384.00" haltingDurationSum="35586.00" meanIntervalHaltingDuration="100.00" maxIntervalHaltingDuration="100.00" intervalHaltingDurationSum="10500.00" startedHalts="0.00" meanVehicleNumber="105.00" maxVehicleNumber="105" />
   <interval begin="24600.00" end="24700.00" id="e2_L10009_0_2" sampledSeconds="10500.00" nVehEntered="0" nVehLeft="0" nVehSeen="105" meanSpeed="0.00" meanTimeLoss="100.00" meanOccupancy="112.37" maxOccupancy="112.37" meanMaxJamLengthInVehicles="105.00" meanMaxJamLengthInMeters="426.48" maxJamLengthInVehicles="105" maxJamLengthInMeters="426.48" jamLengthInVehiclesSum="10500" jamLengthInMetersSum="42648.03" meanHaltingDuration="438.91" maxHaltingDuration="484.00" haltingDurationSum="46086.00" meanIntervalHaltingDuration="100.00" maxIntervalHaltingDuration="100.00" intervalHaltingDurationSum="10500.00" startedHalts="0.00" meanVehicleNumber="105.00" maxVehicleNumber="105" />
   <interval begin="24700.00" end="24800.00" id="e2_L10009_0_2" sampledSeconds="9965.83" nVehEntered="4" nVehLeft="20" nVehSeen="109" meanSpeed="0.31" meanTimeLoss="89.15" meanOccupancy="106.43" maxOccupancy="112.37" meanMaxJamLengthInVehicles="70.72" meanMaxJamLengthInMeters="293.66" maxJamLengthInVehicles="105" maxJamLengthInMeters="427.19" jamLengthInVehiclesSum="8739" jamLengthInMetersSum="36030.81" meanHaltingDuration="139.28" maxHaltingDuration="519.00" haltingDurationSum="55017.00" meanIntervalHaltingDuration="22.61" maxIntervalHaltingDuration="100.00" intervalHaltingDurationSum="8931.00" startedHalts="293.00" meanVehicleNumber="99.74" maxVehicleNumber="106" />
   <interval begin="24800.00" end="24900.00" id="e2_L10009_0_2" sampledSeconds="7852.12" nVehEntered="60" nVehLeft="63" nVehSeen="149" meanSpeed="1.40" meanTimeLoss="46.74" meanOccupancy="84.41" maxOccupancy="94.83" meanMaxJamLengthInVehicles="36.44" meanMaxJamLengthInMeters="162.85" maxJamLengthInVehicles="57" maxJamLengthInMeters="251.40" jamLengthInVehiclesSum="4334" jamLengthInMetersSum="19510.30" meanHaltingDuration="28.62" maxHaltingDuration="510.00" haltingDurationSum="11278.00" meanIntervalHaltingDuration="11.72" maxIntervalHaltingDuration="53.00" intervalHaltingDurationSum="4617.00" startedHalts="333.00" meanVehicleNumber="78.76" maxVehicleNumber="89" />
   <interval begin="24900.00" end="25000.00" id="e2_L10009_0_2" sampledSeconds="9263.61" nVehEntered="70" nVehLeft="70" nVehSeen="156" meanSpeed="0.44" meanTimeLoss="57.27" meanOccupancy="99.96" maxOccupancy="106.94" meanMaxJamLengthInVehicles="75.95" meanMaxJamLengthInMeters="319.49" maxJamLengthInVehicles="97" maxJamLengthInMeters="407.75" jamLengthInVehiclesSum="7991" jamLengthInMetersSum="33798.66" meanHaltingDuration="35.72" maxHaltingDuration="108.00" haltingDurationSum="9538.00" meanIntervalHaltingDuration="30.51" maxIntervalHaltingDuration="100.00" intervalHaltingDurationSum="8146.00" startedHalts="211.00" meanVehicleNumber="92.95" maxVehicleNumber="101" />
   <interval begin="25000.00" end="25100.00" id="e2_L10009_0_2" sampledSeconds="9285.57" nVehEntered="53" nVehLeft="37" nVehSeen="139" meanSpeed="0.45" meanTimeLoss="64.42" meanOccupancy="100.23" maxOccupancy="110.20" meanMaxJamLengthInVehicles="70.21" meanMaxJamLengthInMeters="295.86" maxJamLengthInVehicles="102" maxJamLengthInMeters="424.50" jamLengthInVehiclesSum="7695" jamLengthInMetersSum="33056.99" meanHaltingDuration="34.76" maxHaltingDuration="116.00" haltingDurationSum="11365.00" meanIntervalHaltingDuration="24.24" maxIntervalHaltingDuration="100.00" intervalHaltingDurationSum="7928.00" startedHalts="275.00" meanVehicleNumber="93.06" maxVehicleNumber="103" />
   <interval begin="25100.00" end="25200.00" id="e2_L10009_0_2" sampledSeconds="10200.00" nVehEntered="0" nVehLeft="0" nVehSeen="102" meanSpeed="0.00" meanTimeLoss="100.00" meanOccupancy="110.20" maxOccupancy="110.20" meanMaxJamLengthInVehicles="102.00" meanMaxJamLengthInMeters="424.08" maxJamLengthInVehicles="102" maxJamLengthInMeters="424.08" jamLengthInVehiclesSum="10200" jamLengthInMetersSum="42408.23" meanHaltingDuration="169.72" maxHaltingDuration="216.00" haltingDurationSum="17312.00" meanIntervalHaltingDuration="100.00" maxIntervalHaltingDuration="100.00" intervalHaltingDurationSum="10200.00" startedHalts="0.00" meanVehicleNumber="102.00" maxVehicleNumber="102" />
   <interval begin="25200.00" end="25300.00" id="e2_L10009_0_2" sampledSeconds="10200.00" nVehEntered="0" nVehLeft="0" nVehSeen="102" meanSpeed="0.00" meanTimeLoss="100.00" meanOccupancy="110.20" maxOccupancy="110.20" meanMaxJamLengthInVehicles="102.00" meanMaxJamLengthInMeters="424.08" maxJamLengthInVehicles="102" maxJamLengthInMeters="424.08" jamLengthInVehiclesSum="10200" jamLengthInMetersSum="42408.22" meanHaltingDuration="269.73" maxHaltingDuration="316.00" haltingDurationSum="27512.00" meanIntervalHaltingDuration="100.00" maxIntervalHaltingDuration="100.00" intervalHaltingDurationSum="10200.00" startedHalts="0.00" meanVehicleNumber="102.00" maxVehicleNumber="102" />
   <interval begin="25300.00" end="25400.00" id="e2_L10009_0_2" sampledSeconds="10200.00" nVehEntered="0" nVehLeft="0" nVehSeen="102" meanSpeed="0.00" meanTimeLoss="100.00" meanOccupancy="110.20" maxOccupancy="110.20" meanMaxJamLengthInVehicles="102.00" meanMaxJamLengthInMeters="424.08" maxJamLengthInVehicles="102" maxJamLengthInMeters="424.08" jamLengthInVehiclesSum="10200" jamLengthInMetersSum="42408.22" meanHaltingDuration="369.73" maxHaltingDuration="416.00" haltingDurationSum="37712.00" meanIntervalHaltingDuration="100.00" maxIntervalHaltingDuration="100.00" intervalHaltingDurationSum="10200.00" startedHalts="0.00" meanVehicleNumber="102.00" maxVehicleNumber="102" />
   <interval begin="25400.00" end="25500.00" id="e2_L10009_0_2" sampledSeconds="9929.10" nVehEntered="5" nVehLeft="18" nVehSeen="107" meanSpeed="0.18" meanTimeLoss="91.41" meanOccupancy="107.14" maxOccupancy="110.20" meanMaxJamLengthInVehicles="92.05" meanMaxJamLengthInMeters="379.65" maxJamLengthInVehicles="102" maxJamLengthInMeters="426.14" jamLengthInVehiclesSum="9305" jamLengthInMetersSum="38431.39" meanHaltingDuration="277.43" maxHaltingDuration="476.00" haltingDurationSum="46609.00" meanIntervalHaltingDuration="55.43" maxIntervalHaltingDuration="100.00" intervalHaltingDurationSum="9313.00" startedHalts="67.00" meanVehicleNumber="99.35" maxVehicleNumber="102" />
   <interval begin="25500.00" end="25600.00" id="e2_L10009_0_2" sampledSeconds="7262.11" nVehEntered="69" nVehLeft="98" nVehSeen="158" meanSpeed="2.29" meanTimeLoss="37.50" meanOccupancy="77.87" maxOccupancy="95.07" meanMaxJamLengthInVehicles="11.68" meanMaxJamLengthInMeters="52.08" maxJamLengthInVehicles="50" maxJamLengthInMeters="203.50" jamLengthInVehiclesSum="1543" jamLengthInMetersSum="7055.59" meanHaltingDuration="41.05" maxHaltingDuration="475.00" haltingDurationSum="25941.00" meanIntervalHaltingDuration="3.27" maxIntervalHaltingDuration="43.00" intervalHaltingDurationSum="2068.00" startedHalts="578.00" meanVehicleNumber="72.98" maxVehicleNumber="90" />
   <interval begin="25600.00" end="25700.00" id="e2_L10009_0_2" sampledSeconds="6776.73" nVehEntered="122" nVehLeft="116" nVehSeen="182" meanSpeed="3.11" meanTimeLoss="27.96" meanOccupancy="72.72" maxOccupancy="78.87" meanMaxJamLengthInVehicles="1.19" meanMaxJamLengthInMeters="5.34" maxJamLengthInVehicles="4" maxJamLengthInMeters="13.79" jamLengthInVehiclesSum="229" jamLengthInMetersSum="1038.27" meanHaltingDuration="1.42" maxHaltingDuration="5.00" haltingDurationSum="753.00" meanIntervalHaltingDuration="1.39" maxIntervalHaltingDuration="5.00" intervalHaltingDurationSum="741.00" startedHalts="535.00" meanVehicleNumber="68.27" maxVehicleNumber="76" />
   <interval begin="25700.00" end="25800.00" id="e2_L10009_0_2" sampledSeconds="7453.80" nVehEntered="125" nVehLeft="97" nVehSeen="191" meanSpeed="2.62" meanTimeLoss="30.82" meanOccupancy="80.30" maxOccupancy="102.31" meanMaxJamLengthInVehicles="20.32" meanMaxJamLengthInMeters="71.25" maxJamLengthInVehicles="76" maxJamLengthInMeters="265.77" jamLengthInVehiclesSum="2264" jamLengthInMetersSum="8049.45" meanHaltingDuration="7.54" maxHaltingDuration="56.00" haltingDurationSum="2601.00" meanIntervalHaltingDuration="7.52" maxIntervalHaltingDuration="56.00" intervalHaltingDurationSum="2594.00" startedHalts="348.00" meanVehicleNumber="74.99" maxVehicleNumber="96" />