<?xml version="1.0" encoding="UTF-8"?>

<!-- generated on Sun Feb 17 15:57:00 2019 by 
<configuration xmlns:xsi="http://www.w3.org/2001/XMLSchema-instance" xsi:noNamespaceSchemaLocation="http://sumo.dlr.de/xsd/Configuration.xsd">

    <input>
        <net-file value="/home/sda/Documents/sumo-sathorn-ray/models/sathorn-morning/sathorn_w_fixed_20160404.net.xml"/>
        <route-files value="/home/sda/Documents/sumo-sathorn-ray/models/sathorn-morning/Great-route/sathorn_w_20160422edit2.rou.xml"/>
        <additional-files value="/home/sda/Documents/sumo-sathorn-ray/models/sathorn-morning/sathon_wide_tls_20160418_edited.add.xml,/home/sda/Documents/sumo-sathorn-ray/detectors/sathorn_w_detectors.add.xml"/>
    </input>

    <time>
        <begin value="21600"/>
        <end value="32400"/>
        <step-length value="1"/>
    </time>

    <processing>
        <no-internal-links value="true"/>
        <ignore-junction-blocker value="-1"/>
        <time-to-teleport value="-1"/>
        <eager-insert value="true"/>
        <time-to-impatience value="300"/>
    </processing>

    <report>
        <no-warnings value="true"/>
    </report>

    <random_number>
        <random value="false"/>
        <seed value="20"/>
    </random_number>

    <gui_only>
        <gui-settings-file value="/home/sda/Documents/sumo-sathorn-ray/gui-settings/gui-settings-file-surasak.xml"/>
        <quit-on-end value="true"/>
        <start value="true"/>
        <tracker-interval value="1"/>
    </gui_only>

</configuration>
-->

<detector xmlns:xsi="http://www.w3.org/2001/XMLSchema-instance" xsi:noNamespaceSchemaLocation="http://sumo.dlr.de/xsd/det_e2_file.xsd">
   <interval begin="21600.00" end="21700.00" id="e2_L232_1_1" sampledSeconds="0.00" nVehEntered="0" nVehLeft="0" nVehSeen="0" meanSpeed="-1.00" meanTimeLoss="-1.00" meanOccupancy="0.00" maxOccupancy="0.00" meanMaxJamLengthInVehicles="0.00" meanMaxJamLengthInMeters="0.00" maxJamLengthInVehicles="0" maxJamLengthInMeters="0.00" jamLengthInVehiclesSum="0" jamLengthInMetersSum="0.00" meanHaltingDuration="0.00" maxHaltingDuration="0.00" haltingDurationSum="0.00" meanIntervalHaltingDuration="0.00" maxIntervalHaltingDuration="0.00" intervalHaltingDurationSum="0.00" startedHalts="0.00" meanVehicleNumber="0.00" maxVehicleNumber="0" />
   <interval begin="21700.00" end="21800.00" id="e2_L232_1_1" sampledSeconds="0.00" nVehEntered="0" nVehLeft="0" nVehSeen="0" meanSpeed="-1.00" meanTimeLoss="-1.00" meanOccupancy="0.00" maxOccupancy="0.00" meanMaxJamLengthInVehicles="0.00" meanMaxJamLengthInMeters="0.00" maxJamLengthInVehicles="0" maxJamLengthInMeters="0.00" jamLengthInVehiclesSum="0" jamLengthInMetersSum="0.00" meanHaltingDuration="0.00" maxHaltingDuration="0.00" haltingDurationSum="0.00" meanIntervalHaltingDuration="0.00" maxIntervalHaltingDuration="0.00" intervalHaltingDurationSum="0.00" startedHalts="0.00" meanVehicleNumber="0.00" maxVehicleNumber="0" />
   <interval begin="21800.00" end="21900.00" id="e2_L232_1_1" sampledSeconds="111.87" nVehEntered="17" nVehLeft="15" nVehSeen="17" meanSpeed="11.76" meanTimeLoss="0.38" meanOccupancy="5.98" maxOccupancy="11.18" meanMaxJamLengthInVehicles="0.00" meanMaxJamLengthInMeters="0.00" maxJamLengthInVehicles="0" maxJamLengthInMeters="0.00" jamLengthInVehiclesSum="0" jamLengthInMetersSum="0.00" meanHaltingDuration="0.00" maxHaltingDuration="0.00" haltingDurationSum="0.00" meanIntervalHaltingDuration="0.00" maxIntervalHaltingDuration="0.00" intervalHaltingDurationSum="0.00" startedHalts="0.00" meanVehicleNumber="1.29" maxVehicleNumber="2" />
   <interval begin="21900.00" end="22000.00" id="e2_L232_1_1" sampledSeconds="148.06" nVehEntered="23" nVehLeft="21" nVehSeen="25" meanSpeed="11.16" meanTimeLoss="0.63" meanOccupancy="7.92" maxOccupancy="22.37" meanMaxJamLengthInVehicles="0.00" meanMaxJamLengthInMeters="0.00" maxJamLengthInVehicles="0" maxJamLengthInMeters="0.00" jamLengthInVehiclesSum="0" jamLengthInMetersSum="0.00" meanHaltingDuration="0.00" maxHaltingDuration="0.00" haltingDurationSum="0.00" meanIntervalHaltingDuration="0.00" maxIntervalHaltingDuration="0.00" intervalHaltingDurationSum="0.00" startedHalts="0.00" meanVehicleNumber="1.66" maxVehicleNumber="4" />
   <interval begin="22000.00" end="22100.00" id="e2_L232_1_1" sampledSeconds="438.61" nVehEntered="61" nVehLeft="57" nVehSeen="65" meanSpeed="5.73" meanTimeLoss="3.65" meanOccupancy="24.19" maxOccupancy="47.48" meanMaxJamLengthInVehicles="1.40" meanMaxJamLengthInMeters="8.79" maxJamLengthInVehicles="6" maxJamLengthInMeters="39.63" jamLengthInVehiclesSum="140" jamLengthInMetersSum="878.51" meanHaltingDuration="16.55" maxHaltingDuration="37.00" haltingDurationSum="149.00" meanIntervalHaltingDuration="16.55" maxIntervalHaltingDuration="37.00" intervalHaltingDurationSum="149.00" startedHalts="11.00" meanVehicleNumber="4.73" maxVehicleNumber="10" />
   <interval begin="22100.00" end="22200.00" id="e2_L232_1_1" sampledSeconds="1142.01" nVehEntered="22" nVehLeft="18" nVehSeen="30" meanSpeed="0.20" meanTimeLoss="37.47" meanOccupancy="63.62" maxOccupancy="69.53" meanMaxJamLengthInVehicles="10.88" meanMaxJamLengthInMeters="73.77" maxJamLengthInVehicles="12" maxJamLengthInMeters="81.67" jamLengthInVehiclesSum="1088" jamLengthInMetersSum="7376.87" meanHaltingDuration="94.46" maxHaltingDuration="137.00" haltingDurationSum="1228.00" meanIntervalHaltingDuration="83.69" maxIntervalHaltingDuration="100.00" intervalHaltingDurationSum="1088.00" startedHalts="11.00" meanVehicleNumber="11.52" maxVehicleNumber="13" />
   <interval begin="22200.00" end="22300.00" id="e2_L232_1_1" sampledSeconds="1200.00" nVehEntered="0" nVehLeft="0" nVehSeen="12" meanSpeed="0.00" meanTimeLoss="100.00" meanOccupancy="66.96" maxOccupancy="66.96" meanMaxJamLengthInVehicles="12.00" meanMaxJamLengthInMeters="81.52" maxJamLengthInVehicles="12" maxJamLengthInMeters="81.52" jamLengthInVehiclesSum="1200" jamLengthInMetersSum="8152.13" meanHaltingDuration="201.75" maxHaltingDuration="237.00" haltingDurationSum="2421.00" meanIntervalHaltingDuration="100.00" maxIntervalHaltingDuration="100.00" intervalHaltingDurationSum="1200.00" startedHalts="0.00" meanVehicleNumber="12.00" maxVehicleNumber="12" />
   <interval begin="22300.00" end="22400.00" id="e2_L232_1_1" sampledSeconds="1111.51" nVehEntered="13" nVehLeft="14" nVehSeen="25" meanSpeed="0.20" meanTimeLoss="43.76" meanOccupancy="61.74" maxOccupancy="66.96" meanMaxJamLengthInVehicles="10.15" meanMaxJamLengthInMeters="68.93" maxJamLengthInVehicles="12" maxJamLengthInMeters="82.80" jamLengthInVehiclesSum="1030" jamLengthInMetersSum="6986.15" meanHaltingDuration="124.85" maxHaltingDuration="271.00" haltingDurationSum="3246.00" meanIntervalHaltingDuration="37.96" maxIntervalHaltingDuration="58.00" intervalHaltingDurationSum="987.00" startedHalts="19.00" meanVehicleNumber="11.19" maxVehicleNumber="13" />
   <interval begin="22400.00" end="22500.00" id="e2_L232_1_1" sampledSeconds="1097.41" nVehEntered="4" nVehLeft="4" nVehSeen="15" meanSpeed="0.02" meanTimeLoss="73.06" meanOccupancy="61.28" maxOccupancy="61.51" meanMaxJamLengthInVehicles="10.89" meanMaxJamLengthInMeters="73.82" maxJamLengthInVehicles="11" maxJamLengthInMeters="74.62" jamLengthInVehiclesSum="1089" jamLengthInMetersSum="7382.33" meanHaltingDuration="131.58" maxHaltingDuration="158.00" haltingDurationSum="1579.00" meanIntervalHaltingDuration="90.50" maxIntervalHaltingDuration="100.00" intervalHaltingDurationSum="1086.00" startedHalts="4.00" meanVehicleNumber="10.99" maxVehicleNumber="13" />
   <interval begin="22500.00" end="22600.00" id="e2_L232_1_1" sampledSeconds="1157.06" nVehEntered="10" nVehLeft="9" nVehSeen="21" meanSpeed="0.16" meanTimeLoss="54.40" meanOccupancy="64.37" maxOccupancy="67.10" meanMaxJamLengthInVehicles="10.76" meanMaxJamLengthInMeters="74.20" maxJamLengthInVehicles="12" maxJamLengthInMeters="82.51" jamLengthInVehiclesSum="1116" jamLengthInMetersSum="7689.25" meanHaltingDuration="95.00" maxHaltingDuration="244.00" haltingDurationSum="2375.00" meanIntervalHaltingDuration="43.20" maxIntervalHaltingDuration="100.00" intervalHaltingDurationSum="1080.00" startedHalts="20.00" meanVehicleNumber="11.61" maxVehicleNumber="13" />
   <interval begin="22600.00" end="22700.00" id="e2_L232_1_1" sampledSeconds="1200.00" nVehEntered="0" nVehLeft="0" nVehSeen="12" meanSpeed="0.00" meanTimeLoss="100.00" meanOccupancy="67.10" maxOccupancy="67.10" meanMaxJamLengthInVehicles="12.00" meanMaxJamLengthInMeters="81.52" maxJamLengthInVehicles="12" maxJamLengthInMeters="81.52" jamLengthInVehiclesSum="1200" jamLengthInMetersSum="8152.14" meanHaltingDuration="183.50" maxHaltingDuration="344.00" haltingDurationSum="2202.00" meanIntervalHaltingDuration="100.00" maxIntervalHaltingDuration="100.00" intervalHaltingDurationSum="1200.00" startedHalts="0.00" meanVehicleNumber="12.00" maxVehicleNumber="12" />
   <interval begin="22700.00" end="22800.00" id="e2_L232_1_1" sampledSeconds="1200.00" nVehEntered="0" nVehLeft="0" nVehSeen="12" meanSpeed="0.00" meanTimeLoss="100.00" meanOccupancy="67.10" maxOccupancy="67.10" meanMaxJamLengthInVehicles="12.00" meanMaxJamLengthInMeters="81.52" maxJamLengthInVehicles="12" maxJamLengthInMeters="81.52" jamLengthInVehiclesSum="1200" jamLengthInMetersSum="8152.14" meanHaltingDuration="283.50" maxHaltingDuration="444.00" haltingDurationSum="3402.00" meanIntervalHaltingDuration="100.00" maxIntervalHaltingDuration="100.00" intervalHaltingDurationSum="1200.00" startedHalts="0.00" meanVehicleNumber="12.00" maxVehicleNumber="12" />
   <interval begin="22800.00" end="22900.00" id="e2_L232_1_1" sampledSeconds="1200.00" nVehEntered="0" nVehLeft="0" nVehSeen="12" meanSpeed="0.00" meanTimeLoss="100.00" meanOccupancy="67.10" maxOccupancy="