<?xml version="1.0" encoding="UTF-8"?>

<!-- generated on Sun Feb 17 15:57:00 2019 by 
<configuration xmlns:xsi="http://www.w3.org/2001/XMLSchema-instance" xsi:noNamespaceSchemaLocation="http://sumo.dlr.de/xsd/Configuration.xsd">

    <input>
        <net-file value="/home/sda/Documents/sumo-sathorn-ray/models/sathorn-morning/sathorn_w_fixed_20160404.net.xml"/>
        <route-files value="/home/sda/Documents/sumo-sathorn-ray/models/sathorn-morning/Great-route/sathorn_w_20160422edit2.rou.xml"/>
        <additional-files value="/home/sda/Documents/sumo-sathorn-ray/models/sathorn-morning/sathon_wide_tls_20160418_edited.add.xml,/home/sda/Documents/sumo-sathorn-ray/detectors/sathorn_w_detectors.add.xml"/>
    </input>

    <time>
        <begin value="21600"/>
        <end value="32400"/>
        <step-length value="1"/>
    </time>

    <processing>
        <no-internal-links value="true"/>
        <ignore-junction-blocker value="-1"/>
        <time-to-teleport value="-1"/>
        <eager-insert value="true"/>
        <time-to-impatience value="300"/>
    </processing>

    <report>
        <no-warnings value="true"/>
    </report>

    <random_number>
        <random value="false"/>
        <seed value="20"/>
    </random_number>

    <gui_only>
        <gui-settings-file value="/home/sda/Documents/sumo-sathorn-ray/gui-settings/gui-settings-file-surasak.xml"/>
        <quit-on-end value="true"/>
        <start value="true"/>
        <tracker-interval value="1"/>
    </gui_only>

</configuration>
-->

<detector xmlns:xsi="http://www.w3.org/2001/XMLSchema-instance" xsi:noNamespaceSchemaLocation="http://sumo.dlr.de/xsd/det_e2_file.xsd">
   <interval begin="21600.00" end="21700.00" id="e2_L25_1_3" sampledSeconds="0.00" nVehEntered="0" nVehLeft="0" nVehSeen="0" meanSpeed="-1.00" meanTimeLoss="-1.00" meanOccupancy="0.00" maxOccupancy="0.00" meanMaxJamLengthInVehicles="0.00" meanMaxJamLengthInMeters="0.00" maxJamLengthInVehicles="0" maxJamLengthInMeters="0.00" jamLengthInVehiclesSum="0" jamLengthInMetersSum="0.00" meanHaltingDuration="0.00" maxHaltingDuration="0.00" haltingDurationSum="0.00" meanIntervalHaltingDuration="0.00" maxIntervalHaltingDuration="0.00" intervalHaltingDurationSum="0.00" startedHalts="0.00" meanVehicleNumber="0.00" maxVehicleNumber="0" />
   <interval begin="21700.00" end="21800.00" id="e2_L25_1_3" sampledSeconds="0.00" nVehEntered="0" nVehLeft="0" nVehSeen="0" meanSpeed="-1.00" meanTimeLoss="-1.00" meanOccupancy="0.00" maxOccupancy="0.00" meanMaxJamLengthInVehicles="0.00" meanMaxJamLengthInMeters="0.00" maxJamLengthInVehicles="0" maxJamLengthInMeters="0.00" jamLengthInVehiclesSum="0" jamLengthInMetersSum="0.00" meanHaltingDuration="0.00" maxHaltingDuration="0.00" haltingDurationSum="0.00" meanIntervalHaltingDuration="0.00" maxIntervalHaltingDuration="0.00" intervalHaltingDurationSum="0.00" startedHalts="0.00" meanVehicleNumber="0.00" maxVehicleNumber="0" />
   <interval begin="21800.00" end="21900.00" id="e2_L25_1_3" sampledSeconds="222.49" nVehEntered="14" nVehLeft="11" nVehSeen="14" meanSpeed="4.30" meanTimeLoss="10.43" meanOccupancy="4.32" maxOccupancy="13.73" meanMaxJamLengthInVehicles="1.05" meanMaxJamLengthInMeters="6.37" maxJamLengthInVehicles="5" maxJamLengthInMeters="32.67" jamLengthInVehiclesSum="105" jamLengthInMetersSum="636.58" meanHaltingDuration="18.50" maxHaltingDuration="36.00" haltingDurationSum="111.00" meanIntervalHaltingDuration="18.50" maxIntervalHaltingDuration="36.00" intervalHaltingDurationSum="111.00" startedHalts="6.00" meanVehicleNumber="2.23" maxVehicleNumber="7" />
   <interval begin="21900.00" end="22000.00" id="e2_L25_1_3" sampledSeconds="128.15" nVehEntered="10" nVehLeft="13" nVehSeen="13" meanSpeed="9.40" meanTimeLoss="2.44" meanOccupancy="2.34" maxOccupancy="7.85" meanMaxJamLengthInVehicles="0.01" meanMaxJamLengthInMeters="0.05" maxJamLengthInVehicles="1" maxJamLengthInMeters="4.62" jamLengthInVehiclesSum="1" jamLengthInMetersSum="4.62" meanHaltingDuration="1.33" maxHaltingDuration="2.00" haltingDurationSum="4.00" meanIntervalHaltingDuration="1.33" maxIntervalHaltingDuration="2.00" intervalHaltingDurationSum="4.00" startedHalts="3.00" meanVehicleNumber="1.32" maxVehicleNumber="4" />
   <interval begin="22000.00" end="22100.00" id="e2_L25_1_3" sampledSeconds="170.20" nVehEntered="20" nVehLeft="19" nVehSeen="20" meanSpeed="6.86" meanTimeLoss="3.84" meanOccupancy="3.21" maxOccupancy="7.85" meanMaxJamLengthInVehicles="0.27" meanMaxJamLengthInMeters="1.33" maxJamLengthInVehicles="2" maxJamLengthInMeters="12.69" jamLengthInVehiclesSum="27" jamLengthInMetersSum="133.20" meanHaltingDuration="4.86" maxHaltingDuration="22.00" haltingDurationSum="34.00" meanIntervalHaltingDuration="4.86" maxIntervalHaltingDuration="22.00" intervalHaltingDurationSum="34.00" startedHalts="7.00" meanVehicleNumber="1.73" maxVehicleNumber="4" />
   <interval begin="22100.00" end="22200.00" id="e2_L25_1_3" sampledSeconds="219.84" nVehEntered="10" nVehLeft="10" nVehSeen="11" meanSpeed="2.32" meanTimeLoss="16.27" meanOccupancy="4.20" maxOccupancy="9.81" meanMaxJamLengthInVehicles="1.34" meanMaxJamLengthInMeters="8.28" maxJamLengthInVehicles="5" maxJamLengthInMeters="34.33" jamLengthInVehiclesSum="134" jamLengthInMetersSum="827.67" meanHaltingDuration="19.00" maxHaltingDuration="35.00" haltingDurationSum="95.00" meanIntervalHaltingDuration="19.00" maxIntervalHaltingDuration="35.00" intervalHaltingDurationSum="95.00" startedHalts="7.00" meanVehicleNumber="2.23" maxVehicleNumber="5" />
   <interval begin="22200.00" end="22300.00" id="e2_L25_1_3" sampledSeconds="105.79" nVehEntered="14" nVehLeft="13" nVehSeen="15" meanSpeed="10.73" meanTimeLoss="0.92" meanOccupancy="1.94" maxOccupancy="5.88" meanMaxJamLengthInVehicles="0.00" meanMaxJamLengthInMeters="0.00" maxJamLengthInVehicles="0" maxJamLengthInMeters="0.00" jamLengthInVehiclesSum="0" jamLengthInMetersSum="0.00" meanHaltingDuration="0.00" maxHaltingDuration="0.00" haltingDurationSum="0.00" meanIntervalHaltingDuration="0.00" maxIntervalHaltingDuration="0.00" intervalHaltingDurationSum="0.00" startedHalts="0.00" meanVehicleNumber="1.09" maxVehicleNumber="3" />
   <interval begin="22300.00" end="22400.00" id="e2_L25_1_3" sampledSeconds="277.42" nVehEntered="14" nVehLeft="14" nVehSeen="16" meanSpeed="5.63" meanTimeLoss="9.52" meanOccupancy="5.31" maxOccupancy="9.81" meanMaxJamLengthInVehicles="0.98" meanMaxJamLengthInMeters="7.07" maxJamLengthInVehicles="4" maxJamLengthInMeters="34.54" jamLengthInVehiclesSum="100" jamLengthInMetersSum="716.70" meanHaltingDuration="11.67" maxHaltingDuration="33.00" haltingDurationSum="105.00" meanIntervalHaltingDuration="11.67" maxIntervalHaltingDuration="33.00" intervalHaltingDurationSum="105.00" startedHalts="11.00" meanVehicleNumber="2.80" maxVehicleNumber="5" />
   <interval begin="22400.00" end="22500.00" id="e2_L25_1_3" sampledSeconds="207.41" nVehEntered="17" nVehLeft="19" nVehSeen="19" meanSpeed="4.56" meanTimeLoss="6.93" meanOccupancy="3.92" maxOccupancy="7.85" meanMaxJamLengthInVehicles="0.87" meanMaxJamLengthInMeters="5.04" maxJamLengthInVehicles="3" maxJamLengthInMeters="19.85" jamLengthInVehiclesSum="87" jamLengthInMetersSum="503.50" meanHaltingDuration="5.80" maxHaltingDuration="29.00" haltingDurationSum="58.00" meanIntervalHaltingDuration="5.80" maxIntervalHaltingDuration="29.00" intervalHaltingDurationSum="58.00" startedHalts="12.00" meanVehicleNumber="2.11" maxVehicleNumber="4" />
   <interval begin="22500.00" end="22600.00" id="e2_L25_1_3" sampledSeconds="145.03" nVehEntered="12" nVehLeft="10" nVehSeen="12" meanSpeed="7.97" meanTimeLoss="4.33" meanOccupancy="2.70" maxOccupancy="5.88" meanMaxJamLengthInVehicles="0.19" meanMaxJamLengthInMeters="1.00" maxJamLengthInVehicles="2" maxJamLengthInMeters="11.62" jamLengthInVehiclesSum="19" jamLengthInMetersSum="99.64" meanHaltingDuration="5.75" maxHaltingDuration="13.00" haltingDurationSum="23.00" meanIntervalHaltingDuration="5.75" maxIntervalHaltingDuration="13.00" intervalHaltingDurationSum="23.00" startedHalts="4.00" meanVehicleNumber="1.50" maxVehicleNumber="4" />
   <interval begin="22600.00" end="22700.00" id="e2_L25_1_3" sampledSeconds="246.25" nVehEntered="21" nVehLeft="23" nVehSeen="23" meanSpeed="5.65" meanTimeLoss="5.87" meanOccupancy="4.61" maxOccupancy="7.85" meanMaxJamLengthInVehicles="0.70" meanMaxJamLengthInMeters="4.12" maxJamLengthInVehicles="3" maxJamLengthInMeters="18.82" jamLengthInVehiclesSum="70" jamLengthInMetersSum="412.01" meanHaltingDuration="7.69" maxHaltingDuration="35.00" haltingDurationSum="100.00" meanIntervalHaltingDuration="6.23" maxIntervalHaltingDuration="23.00" intervalHaltingDurationSum="81.00" startedHalts="11.00" meanVehicleNumber="2.51" maxVehicleNumber="5" />
   <interval begin="22700.00" end="22800.00" id="e2_L25_1_3" sampledSeconds="269.29" nVehEntered="8" nVehLeft="8" nVehSeen="8" meanSpeed="3.60" meanTimeLoss="23.97" meanOccupancy="5.23" maxOccupancy="9.81" meanMaxJamLengthInVehicles="1.48" meanMaxJamLengthInMeters="9.36" maxJamLengthInVehicles="5" maxJamLengthInMeters="33.70" jamLengthInVehiclesSum="149" jamLengthInMetersSum="940.96" meanHaltingDuration="14.62" maxHaltingDuration="36.00" haltingDurationSum="117.00" meanIntervalHaltingDuration="14.62" maxIntervalHaltingDuration="36.00" intervalHaltingDurationSum="117.00" startedHalts="9.00" meanVehicleNumber="2.70" maxVehicleNumber="5" />
   <interval begin="22800.00" end="22900.00" id="e2_L25_1_3" sampledSeconds="130.84" nVehEntered="13" nVehLeft="10" nVehSeen="13" meanSpeed="8.12" meanTimeLoss="3.53" meanOccupancy="2.47" maxOccupancy="5.88" meanMaxJamLengthInVehicles="0.24" meanMaxJamLengthInMeters="1.18" maxJamLengthInVehicles="2" maxJamLengthInMeters="11.65" jamLengthInVehiclesSum="24" jamLengthInMetersSum="118.05" meanHaltingDuration="12.00" maxHaltingDuration="20.00" haltingDurationSum="24.00" meanIntervalHaltingDuration="12.00" maxIntervalHaltingDuration="20.00" intervalHaltingDurationSum="24.00" startedHalts="3.00" meanVehicleNumber="1.34" maxVehicleNumber="3" />
   <interval begin="22900.00" end="23000.00" id="e2_L25_1_3" sampledSeconds="541.94" nVehEntered="12" nVehLeft="8" nVehSeen="15" meanSpeed="0.92" meanTimeLoss="33.46" meanOccupancy="10.61" maxOccupancy="13.73" meanMaxJamLengthInVehicles="4.58" meanMaxJamLengthInMeters="29.70" maxJamLengthInVehicles="7" maxJamLengthInMeters="46.78" jamLengthInVehiclesSum="458" jamLengthInMetersSum="2970.43" meanHaltingDuration="40.17" maxHaltingDuration="82.00" haltingDurationSum="482.00" meanIntervalHaltingDuration="38.17" maxIntervalHaltingDuration="82.00" intervalHaltingDurationSum="458.00" startedHalts="15.00" meanVehicleNumber="5.42" maxVehicleNumber="7" />
   <interval begin="23000.00" end="23100.00" id="e2_L25_1_3" sampledSeconds="1102.00" nVehEntered="20" nVehLeft="14" nVehSeen="27" meanSpeed="0.52" meanTimeLoss="39.12" meanOccupancy="21.62" maxOccupancy="27.46" meanMaxJamLengthInVehicles="10.09" meanMaxJamLengthInMeters="68.19" maxJamLengthInVehicles="14" maxJamLengthInMeters="95.53" jamLengthInVehiclesSum="1009" jamLengthInMetersSum="6818.69" meanHaltingDuration="108.54" maxHaltingDuration="182.00" haltingDurationSum="1411.00" meanIntervalHaltingDuration="76.77" maxIntervalHaltingDuration="100.00" intervalHaltingDurationSum="998.00" startedHalts="14.00" meanVehicleNumber="11.02" maxVehicleNumber="14" />
   <interval begin="23100.00" end="23200.00" id="e2_L25_1_3" sampledSeconds="1552.00" nVehEntered="9" nVehLeft="4" nVehSeen="22" meanSpeed="0.10" meanTimeLoss="69.99" meanOccupancy="30.44" maxOccupancy="35.31" meanMaxJamLengthInVehicles="15.13" meanMaxJamLengthInMeters="103.42" maxJamLengthInVehicles="17" maxJamLengthInMeters="116.80" jamLengthInVehiclesSum="1513" jamLengthInMetersSum="10341.88" meanHaltingDuration="162.28" maxHaltingDuration="282.00" haltingDurationSum="2921.00" meanIntervalHaltingDuration="83.89" maxIntervalHaltingDuration="100.00" intervalHaltingDurationSum="1510.00" startedHalts="9.00" meanVehicleNumber="15.52" maxVehicleNumber="18" />
   <interval begin="23200.00" end="23300.00" id="e2_L25_1_3" sampledSeconds="2060.00" nVehEntered="20" nVehLeft="14" nVehSeen="38" meanSpeed="0.23" meanTimeLoss="53.19" meanOccupancy="40.41" maxOccupancy="49.04" meanMaxJamLengthInVehicles="19.78" meanMaxJamLengthInMeters="135.93" maxJamLengthInVehicles="24" maxJamLengthInMeters="165.46" jamLengthInVehiclesSum="1978" jamLengthInMetersSum="13593.25" meanHaltingDuration="203.79" maxHaltingDuration="382.00" haltingDurationSum="4891.00" meanIntervalHaltingDuration="82.12" maxIntervalHaltingDuration="100.00" intervalHaltingDurationSum="1971.00" startedHalts="13.00" meanVehicleNumber="20.60" maxVehicleNumber="25" />
   <interval begin="23300.00" end="23400.00" id="e2_L25_1_3" sampledSeconds="2682.00" nVehEntered="11" nVehLeft="5" nVehSeen="35" meanSpeed="0.08" meanTimeLoss="76.13" meanOccupancy="52.61" maxOccupancy="58.85" meanMaxJamLengthInVehicles="26.35" meanMaxJamLengthInMeters="181.85" maxJamLengthInVehicles="30" maxJamLengthInMeters="207.41" jamLengthInVehiclesSum="2635" jamLengthInMetersSum="18185.28" meanHaltingDuration="259.31" maxHaltingDuration="482.00" haltingDurationSum="7520.00" meanIntervalHaltingDuration="90.66" maxIntervalHaltingDuration="100.00" intervalHaltingDurationSum="2629.00" startedHalts="10.00" meanVehicleNumber="26.82" maxVehicleNumber="30" />
   <interval begin="23400.00" end="23500.00" id="e2_L25_1_3" sampledSeconds="3159.00" nVehEntered="10" nVehLeft="7" nVehSeen="40" meanSpeed="0.04" meanTimeLoss="78.75" meanOccupancy="61.96" maxOccupancy="64.73" meanMaxJamLengthInVehicles="31.14" meanMaxJamLengthInMeters="215.36" maxJamLengthInVehicles="33" maxJamLengthInMeters="229.15" jamLengthInVehiclesSum="3114" jamLengthInMetersSum="21535.89" meanHaltingDuration="303.57" maxHaltingDuration="582.00" haltingDurationSum="10625.00" meanIntervalHaltingDuration="88.71" maxIntervalHaltingDuration="100.00" intervalHaltingDurationSum="3105.00" startedHalts="13.00" meanVehicleNumber="31.59" maxVehicleNumber="33" />
   <interval begin="23500.00" end="23600.00" id="e2_L25_1_3" sampledSeconds="3300.00" nVehEntered="0" nVehLeft="0" nVehSeen="33" meanSpeed="0.00" meanTimeLoss="100.00" meanOccupancy="64.73" maxOccupancy="64.73" meanMaxJamLengthInVehicles="33.00" meanMaxJamLengthInMeters="228.33" maxJamLengthInVehicles="33" maxJamLengthInMeters="228.33" jamLengthInVehiclesSum="3300" jamLengthInMetersSum="22833.31" meanHaltingDuration="421.91" maxHaltingDuration="682.00" haltingDurationSum="13923.00" meanIntervalHaltingDuration="100.00" maxIntervalHaltingDuration="100.00" intervalHaltingDurationSum="3300.00" startedHalts="0.00" meanVehicleNumber="33.00" maxVehicleNumber="33" />
   <interval begin="23600.00" end="23700.00" id="e2_L25_1_3" sampledSeconds="3189.94" nVehEntered="1" nVehLeft="3" nVehSeen="34" meanSpeed="0.19" meanTimeLoss="92.36" meanOccupancy="62.48" maxOccupancy="64.73" meanMaxJamLengthInVehicles="26.35" meanMaxJamLengthInMeters="184.11" maxJamLengthInVehicles="33" maxJamLengthInMeters="229.39" jamLengthInVehiclesSum="3002" jamLengthInMetersSum="20965.93" meanHaltingDuration="168.14" maxHaltingDuration="727.00" haltingDurationSum="16982.00" meanIntervalHaltingDuration="30.29" maxIntervalHaltingDuration="93.00" intervalHaltingDurationSum="3059.00" startedHalts="69.00" meanVehicleNumber="31.91" maxVehicleNumber="33" />
   <interval begin="23700.00" end="23800.00" id="e2_L25_1_3" sampledSeconds="3348.00" nVehEntered="6" nVehLeft="3" nVehSeen="37" meanSpeed="0.03" meanTimeLoss="90.25" meanOccupancy="65.53" maxOccupancy="66.56" meanMaxJamLengthInVehicles="33.03" meanMaxJamLengthInMeters="229.28" maxJamLengthInVehicles="34" maxJamLengthInMeters="235.38" jamLengthInVehiclesSum="3315" jamLengthInMetersSum="23000.70" meanHaltingDuration="89.58" maxHaltingDuration="133.00" haltingDurationSum="3852.00" meanIntervalHaltingDuration="77.39" maxIntervalHaltingDuration="100.00" intervalHaltingDurationSum="3328.00" startedHalts="15.00" meanVehicleNumber="33.48" maxVehicleNumber="34" />
   <interval begin="23800.00" end="23900.00" id="e2_L25_1_3" sampledSeconds="3400.00" nVehEntered="0" nVehLeft="0" nVehSeen="34" meanSpeed="0.00" meanTimeLoss="100.00" meanOccupancy="66.56" maxOccupancy="66.56" meanMaxJamLengthInVehicles="34.00" meanMaxJamLengthInMeters="235.32" maxJamLengthInVehicles="34" maxJamLengthInMeters="235.32" jamLengthInVehiclesSum="3400" jamLengthInMetersSum="23532.39" meanHaltingDuration="211.94" maxHaltingDuration="233.00" haltingDurationSum="7206.00" meanIntervalHaltingDuration="100.00" maxIntervalHaltingDuration="100.00" intervalHaltingDurationSum="3400.00" startedHalts="0.00" meanVehicleNumber="34.00" maxVehicleNumber="34" />
   <interval begin="23900.00" end="24000.00" id="e2_L25_1_3" sampledSeconds="3339.54" nVehEntered="0" nVehLeft="2" nVehSeen="34" meanSpeed="0.09" meanTimeLoss="97.55" meanOccupancy="65.32" maxOccupancy="66.56" meanMaxJamLengthInVehicles="29.97" meanMaxJamLengthInMeters="207.77" maxJamLengthInVehicles="34" maxJamLengthInMeters="236.64" jamLengthInVehiclesSum="3223" jamLengthInMetersSum="22311.01" meanHaltingDuration="137.78" maxHaltingDuration="311.00" haltingDurationSum="10471.00" meanIntervalHaltingDuration="42.96" maxIntervalHaltingDuration="100.00" intervalHaltingDurationSum="3265.00" startedHalts="42.00" meanVehicleNumber="33.40" maxVehicleNumber="34" />
   <interval begin="24000.00" end="24100.00" id="e2_L25_1_3" sampledSeconds="2781.33" nVehEntered="13" nVehLeft="15" nVehSeen="45" meanSpeed="0.73" meanTimeLoss="58.17" meanOccupancy="54.39" maxOccupancy="61.30" meanMaxJamLengthInVehicles="18.79" meanMaxJamLengthInMeters="133.88" maxJamLengthInVehicles="29" maxJamLengthInMeters="201.75" jamLengthInVehiclesSum="2100" jamLengthInMetersSum="14794.92" meanHaltingDuration="33.24" maxHaltingDuration="313.00" haltingDurationSum="5618.00" meanIntervalHaltingDuration="12.96" maxIntervalHaltingDuration="62.00" intervalHaltingDurationSum="2191.00" startedHalts="144.00" meanVehicleNumber="27.83" maxVehicleNumber="32" />
   <interval begin="24100.00" end="24200.00" id="e2_L25_1_3" sampledSeconds="3216.00" nVehEntered="6" nVehLeft="3" nVehSeen="36" meanSpeed="0.08" meanTimeLoss="88.73" meanOccupancy="63.09" maxOccupancy="64.73" meanMaxJamLengthInVehicles="32.01" meanMaxJamLengthInMeters="224.71" maxJamLengthInVehicles="33" maxJamLengthInMeters="234.90" jamLengthInVehiclesSum="3201" jamLengthInMetersSum="22470.89" meanHaltingDuration="130.85" maxHaltingDuration="162.00" haltingDurationSum="4318.00" meanIntervalHaltingDuration="97.12" maxIntervalHaltingDuration="100.00" intervalHaltingDurationSum="3205.00" startedHalts="4.00" meanVehicleNumber="32.16" maxVehicleNumber="33" />
   <interval begin="24200.00" end="24300.00" id="e2_L25_1_3" sampledSeconds="3300.00" nVehEntered="0" nVehLeft="0" nVehSeen="33" meanSpeed="0.01" meanTimeLoss="99.94" meanOccupancy="64.73" maxOccupancy="64.73" meanMaxJamLengthInVehicles="33.00" meanMaxJamLengthInMeters="228.71" maxJamLengthInVehicles="33" maxJamLengthInMeters="231.52" jamLengthInVehiclesSum="3300" jamLengthInMetersSum="22870.52" meanHaltingDuration="230.85" maxHaltingDuration="262.00" haltingDurationSum="7618.00" meanIntervalHaltingDuration="100.00" maxIntervalHaltingDuration="100.00" intervalHaltingDurationSum="3300.00" startedHalts="0.00" meanVehicleNumber="33.00" maxVehicleNumber="33" />
   <interval begin="24300.00" end="24400.00" id="e2_L25_1_3" sampledSeconds="3229.33" nVehEntered="1" nVehLeft="2" nVehSeen="34" meanSpeed="0.07" meanTimeLoss="94.44" meanOccupancy="63.25" maxOccupancy="64.73" meanMaxJamLengthInVehicles="32.15" meanMaxJamLengthInMeters="225.68" maxJamLengthInVehicles="33" maxJamLengthInMeters="233.58" jamLengthInVehiclesSum="3225" jamLengthInMetersSum="22635.96" meanHaltingDuration="310.41" maxHaltingDuration="361.00" haltingDurationSum="10554.00" meanIntervalHaltingDuration="94.06" maxIntervalHaltingDuration="100.00" intervalHaltingDurationSum="3198.00" startedHalts="3.00" meanVehicleNumber="32.30" maxVehicleNumber="33" />
   <interval begin="24400.00" end="24500.00" id="e2_L25_1_3" sampledSeconds="3284.00" nVehEntered="1" nVehLeft="0" nVehSeen="33" meanSpeed="0.00" meanTimeLoss="99.50" meanOccupancy="64.42" maxOccupancy="64.73" meanMaxJamLengthInVehicles="32.80" meanMaxJamLengthInMeters="226.94" maxJamLengthInVehicles="33" maxJamLengthInMeters="228.68" jamLengthInVehiclesSum="3280" jamLengthInMetersSum="22694.07" meanHaltingDuration="402.51" maxHaltingDuration="461.00" haltingDurationSum="13283.00" meanIntervalHaltingDuration="99.42" maxIntervalHaltingDuration="100.00" intervalHaltingDurationSum="3281.00" startedHalts="1.00" meanVehicleNumber="32.84" maxVehicleNumber="33" />
   <interval begin="24500.00" end="24600.00" id="e2_L25_1_3" sampledSeconds="3300.00" nVehEntered="0" nVehLeft="0" nVehSeen="33" meanSpeed="0.00" meanTimeLoss="100.00" meanOccupancy="64.73" maxOccupancy="64.73" meanMaxJamLengthInVehicles="33.00" meanMaxJamLengthInMeters="228.33" maxJamLengthInVehicles="33" maxJamLengthInMeters="228.33" jamLengthInVehiclesSum="3300" jamLengthInMetersSum="22833.32" meanHaltingDuration="502.51" maxHaltingDuration="561.00" haltingDurationSum="16583.00" meanIntervalHaltingDuration="100.00" maxIntervalHaltingDuration="100.00" intervalHaltingDurationSum="3300.00" startedHalts="0.00" meanVehicleNumber="33.00" maxVehicleNumber="33" />
   <interval begin="24600.00" end="24700.00" id="e2_L25_1_3" sampledSeconds="3300.00" nVehEntered="0" nVehLeft="0" nVehSeen="33" meanSpeed="0.00" meanTimeLoss="100.00" meanOccupancy="64.73" maxOccupancy="64.73" meanMaxJamLengthInVehicles="33.00" meanMaxJamLengthInMeters="228.33" maxJamLengthInVehicles="33" maxJamLengthInMeters="228.33" jamLengthInVehiclesSum="3300" jamLengthInMetersSum="22833.32" meanHaltingDuration="602.51" maxHaltingDuration="661.00" haltingDurationSum="19883.00" meanIntervalHaltingDuration="100.00" maxIntervalHaltingDuration="100.00" intervalHaltingDurationSum="3300.00" startedHalts="0.00" meanVehicleNumber="33.00" maxVehicleNumber="33" />
   <interval begin="24700.00" end="24800.00" id="e2_L25_1_3" sampledSeconds="3300.00" nVehEntered="0" nVehLeft="0" nVehSeen="33" meanSpeed="0.00" meanTimeLoss="100.00" meanOccupancy="64.73" maxOccupancy="64.73" meanMaxJamLengthInVehicles="33.00" meanMaxJamLengthInMeters="228.33" maxJamLengthInVehicles="33" maxJamLengthInMeters="228.33" jamLengthInVehiclesSum="3300" jamLengthInMetersSum="22833.32" meanHaltingDuration="702.51" maxHaltingDuration="761.00" haltingDurationSum="23183.00" meanIntervalHaltingDuration="100.00" maxIntervalHaltingDuration="100.00" intervalHaltingDurationSum="3300.00" startedHalts="0.00" meanVehicleNumber="33.00" maxVehicleNumber="33" />
   <interval begin="24800.00" end="24900.00" id="e2_L25_1_3" sampledSeconds="3300.00" nVehEntered="0" nVehLeft="0" nVehSeen="33" meanSpeed="0.00" meanTimeLoss="100.00" meanOccupancy="64.73" maxOccupancy="64.73" meanMaxJamLengthInVehicles="33.00" meanMaxJamLengthInMeters="228.33" maxJamLengthInVehicles="33" maxJamLengthInMeters="228.33" jamLengthInVehiclesSum="3300" jamLengthInMetersSum="22833.32" meanHaltingDuration="802.51" maxHaltingDuration="861.00" haltingDurationSum="26483.00" meanIntervalHaltingDuration="100.00" maxIntervalHaltingDuration="100.00" intervalHaltingDurationSum="3300.00" startedHalts="0.00" meanVehicleNumber="33.00" maxVehicleNumber="33" />
   <interval begin="24900.00" end="25000.00" id="e2_L25_1_3" sampledSeconds="3300.00" nVehEntered="0" nVehLeft="0" nVehSeen="33" meanSpeed="0.00" meanTimeLoss="100.00" meanOccupancy="64.73" maxOccupancy="64.73" meanMaxJamLengthInVehicles="33.00" meanMaxJamLengthInMeters="228.33" maxJamLengthInVehicles="33" maxJamLengthInMeters="228.33" jamLengthInVehiclesSum="3300" jamLengthInMetersSum="22833.32" meanHaltingDuration="902.51" maxHaltingDuration="961.00" haltingDurationSum="29783.00" meanIntervalHaltingDuration="100.00" maxIntervalHaltingDuration="100.00" intervalHaltingDurationSum="3300.00" startedHalts="0.00" meanVehicleNumber="33.00" maxVehicleNumber="33" />
   <interval begin="25000.00" end="25100.00" id="e2_L25_1_3" sampledSeconds="3300.00" nVehEntered="0" nVehLeft="0" nVehSeen="33" meanSpeed="0.00" meanTimeLoss="100.00" meanOccupancy="64.73" maxOccupancy="64.73" meanMaxJamLengthInVehicles="33.00" meanMaxJamLengthInMeters="228.33" maxJamLengthInVehicles="33" maxJamLengthInMeters="228.33" jamLengthInVehiclesSum="3300" jamLengthInMetersSum="22833.32" meanHaltingDuration="1002.51" maxHaltingDuration="1061.00" haltingDurationSum="33083.00" meanIntervalHaltingDuration="100.00" maxIntervalHaltingDuration="100.00" intervalHaltingDurationSum="3300.00" startedHalts="0.00" meanVehicleNumber="33.00" maxVehicleNumber="33" />
   <interval begin="25100.00" end="25200.00" id="e2_L25_1_3" sampledSeconds="3300.00" nVehEntered="0" nVehLeft="0" nVehSeen="33" meanSpeed="0.00" meanTimeLoss="100.00" meanOccupancy="64.73" maxOccupancy="64.73" meanMaxJamLengthInVehicles="33.00" meanMaxJamLengthInMeters="228.33" maxJamLengthInVehicles="33" maxJamLengthInMeters="228.33" jamLengthInVehiclesSum="3300" jamLengthInMetersSum="22833.32" meanHaltingDuration="1102.52" maxHaltingDuration="1161.00" haltingDurationSum="36383.00" meanIntervalHaltingDuration="100.00" maxIntervalHaltingDuration="100.00" intervalHaltingDurationSum="3300.00" startedHalts="0.00" meanVehicleNumber="33.00" maxVehicleNumber="33" />
   <interval begin="25200.00" end="25300.00" id="e2_L25_1_3" sampledSeconds="3300.00" nVehEntered="0" nVehLeft="0" nVehSeen="33" meanSpeed="0.00" meanTimeLoss="100.00" meanOccupancy="64.73" maxOccupancy="64.73" meanMaxJamLengthInVehicles="33.00" meanMaxJamLengthInMeters="228.33" maxJamLengthInVehicles="33" maxJamLengthInMeters="228.33" jamLengthInVehiclesSum="3300" jamLengthInMetersSum="22833.32" meanHaltingDuration="1202.52" maxHaltingDuration="1261.00" haltingDurationSum="39683.00" meanIntervalHaltingDuration="100.00" maxIntervalHaltingDuration="100.00" intervalHaltingDurationSum="3300.00" startedHalts="0.00" meanVehicleNumber="33.00" maxVehicleNumber="33" />
   <interval begin="25300.00" end="25400.00" id="e2_L25_1_3" sampledSeconds="3300.00" nVehEntered="0" nVehLeft="0" nVehSeen="33" meanSpeed="0.00" meanTimeLoss="100.00" meanOccupancy="64.73" maxOccupancy="64.73" meanMaxJamLengthInVehicles="33.00" meanMaxJamLengthInMeters="228.33" maxJamLengthInVehicles="33" maxJamLengthInMeters="228.33" jamLengthInVehiclesSum="3300" jamLengthInMetersSum="22833.32" meanHaltingDuration="1302.52" maxHaltingDuration="1361.00" haltingDurationSum="42983.00" meanIntervalHaltingDuration="100.00" maxIntervalHaltingDuration="100.00" intervalHaltingDurationSum="3300.00" startedHalts="0.00" meanVehicleNumber="33.00" maxVehicleNumber="33" />
   <interval begin="25400.00" end="25500.00" id="e2_L25_1_3" sampledSeconds="3300.00" nVehEntered="0" nVehLeft="0" nVehSeen="33" meanSpeed="0.00" meanTimeLoss="100.00" meanOccupancy="64.73" maxOccupancy="64.73" meanMaxJamLengthInVehicles="33.00" meanMaxJamLengthInMeters="228.33" maxJamLengthInVehicles="33" maxJamLengthInMeters="228.33" jamLengthInVehiclesSum="3300" jamLengthInMetersSum="22833.32" meanHaltingDuration="1402.52" maxHaltingDuration="1461.00" haltingDurationSum="46283.00" meanIntervalHaltingDuration="100.00" maxIntervalHaltingDuration="100.00" intervalHaltingDurationSum="3300.00" startedHalts="0.00" meanVehicleNumber="33.00" maxVehicleNumber="33" />
   <interval begin="25500.00" end="25600.00" id="e2_L25_1_3" sampledSeconds="3288.00" nVehEntered="0" nVehLeft="2" nVehSeen="33" meanSpeed="0.01" meanTimeLoss="99.55" meanOccupancy="64.49" maxOccupancy="64.73" meanMaxJamLengthInVehicles="32.70" meanMaxJamLengthInMeters="226.39" maxJamLengthInVehicles="33" maxJamLengthInMeters="229.26" jamLengthInVehiclesSum="3276" jamLengthInMetersSum="22670.05" meanHaltingDuration="1333.58" maxHaltingDuration="1552.00" haltingDurationSum="48009.00" meanIntervalHaltingDuration="88.53" maxIntervalHaltingDuration="100.00" intervalHaltingDurationSum="3187.00" startedHalts="5.00" meanVehicleNumber="32.88" maxVehicleNumber="33" />
   <interval begin="25600.00" end="25700.00" id="e2_L25_1_3" sampledSeconds="2984.66" nVehEntered="8" nVehLeft="9" nVehSeen="39" meanSpeed="0.50" meanTimeLoss="73.46" meanOccupancy="58.39" maxOccupancy="62.77" meanMaxJamLengthInVehicles="20.22" meanMaxJamLengthInMeters="144.84" maxJamLengthInVehicles="31" maxJamLengthInMeters="228.29" jamLengthInVehiclesSum="2480" jamLengthInMetersSum="17654.20" meanHaltingDuration="241.89" maxHaltingDuration="1576.00" haltingDurationSum="44992.00" meanIntervalHaltingDuration="14.16" maxIntervalHaltingDuration="71.00" intervalHaltingDurationSum="2634.00" startedHalts="158.00" meanVehicleNumber="29.88" maxVehicleNumber="32" />
   <interval begin="25700.00" end="25800.00" id="e2_L25_1_3" sampledSeconds="2986.93" nVehEntered="4" nVehLeft="10" nVehSeen="34" meanSpeed="0.59" meanTimeLoss="83.71" meanOccupancy="58.34" maxOccupancy="62.36" meanMaxJamLengthInVehicles="18.71" meanMaxJamLengthInMeters="131.91" maxJamLengthInVehicles="32" maxJamLengthInMeters="228.21" jamLengthInVehiclesSum="2351" jamLengthInMetersSum="16472.55" meanHaltingDuration="20.17" maxHaltingDuration="53.00" haltingDurationSum="3025.00" meanIntervalHaltingDuration="16.11" maxIntervalHaltingDuration="53.00" intervalHaltingDurationSum="2417.00" startedHalts="127.00" meanVehicleNumber="29.88" maxVehicleNumber="32" />