<?xml version="1.0" encoding="UTF-8"?>

<!-- generated on Sun Feb 17 15:57:00 2019 by 
<configuration xmlns:xsi="http://www.w3.org/2001/XMLSchema-instance" xsi:noNamespaceSchemaLocation="http://sumo.dlr.de/xsd/Configuration.xsd">

    <input>
        <net-file value="/home/sda/Documents/sumo-sathorn-ray/models/sathorn-morning/sathorn_w_fixed_20160404.net.xml"/>
        <route-files value="/home/sda/Documents/sumo-sathorn-ray/models/sathorn-morning/Great-route/sathorn_w_20160422edit2.rou.xml"/>
        <additional-files value="/home/sda/Documents/sumo-sathorn-ray/models/sathorn-morning/sathon_wide_tls_20160418_edited.add.xml,/home/sda/Documents/sumo-sathorn-ray/detectors/sathorn_w_detectors.add.xml"/>
    </input>

    <time>
        <begin value="21600"/>
        <end value="32400"/>
        <step-length value="1"/>
    </time>

    <processing>
        <no-internal-links value="true"/>
        <ignore-junction-blocker value="-1"/>
        <time-to-teleport value="-1"/>
        <eager-insert value="true"/>
        <time-to-impatience value="300"/>
    </processing>

    <report>
        <no-warnings value="true"/>
    </report>

    <random_number>
        <random value="false"/>
        <seed value="20"/>
    </random_number>

    <gui_only>
        <gui-settings-file value="/home/sda/Documents/sumo-sathorn-ray/gui-settings/gui-settings-file-surasak.xml"/>
        <quit-on-end value="true"/>
        <start value="true"/>
        <tracker-interval value="1"/>
    </gui_only>

</configuration>
-->

<detector xmlns:xsi="http://www.w3.org/2001/XMLSchema-instance" xsi:noNamespaceSchemaLocation="http://sumo.dlr.de/xsd/det_e2_file.xsd">
   <interval begin="21600.00" end="21700.00" id="e2_L197#1_3_1" sampledSeconds="0.00" nVehEntered="0" nVehLeft="0" nVehSeen="0" meanSpeed="-1.00" meanTimeLoss="-1.00" meanOccupancy="0.00" maxOccupancy="0.00" meanMaxJamLengthInVehicles="0.00" meanMaxJamLengthInMeters="0.00" maxJamLengthInVehicles="0" maxJamLengthInMeters="0.00" jamLengthInVehiclesSum="0" jamLengthInMetersSum="0.00" meanHaltingDuration="0.00" maxHaltingDuration="0.00" haltingDurationSum="0.00" meanIntervalHaltingDuration="0.00" maxIntervalHaltingDuration="0.00" intervalHaltingDurationSum="0.00" startedHalts="0.00" meanVehicleNumber="0.00" maxVehicleNumber="0" />
   <interval begin="21700.00" end="21800.00" id="e2_L197#1_3_1" sampledSeconds="0.00" nVehEntered="0" nVehLeft="0" nVehSeen="0" meanSpeed="-1.00" meanTimeLoss="-1.00" meanOccupancy="0.00" maxOccupancy="0.00" meanMaxJamLengthInVehicles="0.00" meanMaxJamLengthInMeters="0.00" maxJamLengthInVehicles="0" maxJamLengthInMeters="0.00" jamLengthInVehiclesSum="0" jamLengthInMetersSum="0.00" meanHaltingDuration="0.00" maxHaltingDuration="0.00" haltingDurationSum="0.00" meanIntervalHaltingDuration="0.00" maxIntervalHaltingDuration="0.00" intervalHaltingDurationSum="0.00" startedHalts="0.00" meanVehicleNumber="0.00" maxVehicleNumber="0" />
   <interval begin="21800.00" end="21900.00" id="e2_L197#1_3_1" sampledSeconds="0.00" nVehEntered="0" nVehLeft="0" nVehSeen="0" meanSpeed="-1.00" meanTimeLoss="-1.00" meanOccupancy="0.00" maxOccupancy="0.00" meanMaxJamLengthInVehicles="0.00" meanMaxJamLengthInMeters="0.00" maxJamLengthInVehicles="0" maxJamLengthInMeters="0.00" jamLengthInVehiclesSum="0" jamLengthInMetersSum="0.00" meanHaltingDuration="0.00" maxHaltingDuration="0.00" haltingDurationSum="0.00" meanIntervalHaltingDuration="0.00" maxIntervalHaltingDuration="0.00" intervalHaltingDurationSum="0.00" startedHalts="0.00" meanVehicleNumber="0.00" maxVehicleNumber="0" />
   <interval begin="21900.00" end="22000.00" id="e2_L197#1_3_1" sampledSeconds="0.00" nVehEntered="0" nVehLeft="0" nVehSeen="0" meanSpeed="-1.00" meanTimeLoss="-1.00" meanOccupancy="0.00" maxOccupancy="0.00" meanMaxJamLengthInVehicles="0.00" meanMaxJamLengthInMeters="0.00" maxJamLengthInVehicles="0" maxJamLengthInMeters="0.00" jamLengthInVehiclesSum="0" jamLengthInMetersSum="0.00" meanHaltingDuration="0.00" maxHaltingDuration="0.00" haltingDurationSum="0.00" meanIntervalHaltingDuration="0.00" maxIntervalHaltingDuration="0.00" intervalHaltingDurationSum="0.00" startedHalts="0.00" meanVehicleNumber="0.00" maxVehicleNumber="0" />
   <interval begin="22000.00" end="22100.00" id="e2_L197#1_3_1" sampledSeconds="48.45" nVehEntered="5" nVehLeft="2" nVehSeen="5" meanSpeed="1.65" meanTimeLoss="8.41" meanOccupancy="0.96" maxOccupancy="6.34" meanMaxJamLengthInVehicles="0.31" meanMaxJamLengthInMeters="1.65" maxJamLengthInVehicles="2" maxJamLengthInMeters="11.86" jamLengthInVehiclesSum="31" jamLengthInMetersSum="165.03" meanHaltingDuration="11.00" maxHaltingDuration="20.00" haltingDurationSum="33.00" meanIntervalHaltingDuration="11.00" maxIntervalHaltingDuration="20.00" intervalHaltingDurationSum="33.00" startedHalts="4.00" meanVehicleNumber="0.50" maxVehicleNumber="3" />
   <interval begin="22100.00" end="22200.00" id="e2_L197#1_3_1" sampledSeconds="1323.00" nVehEntered="17" nVehLeft="0" nVehSeen="20" meanSpeed="0.35" meanTimeLoss="64.31" meanOccupancy="27.95" maxOccupancy="42.25" meanMaxJamLengthInVehicles="12.29" meanMaxJamLengthInMeters="83.59" maxJamLengthInVehicles="20" maxJamLengthInMeters="137.55" jamLengthInVehiclesSum="1229" jamLengthInMetersSum="8359.16" meanHaltingDuration="63.95" maxHaltingDuration="120.00" haltingDurationSum="1279.00" meanIntervalHaltingDuration="62.30" maxIntervalHaltingDuration="100.00" intervalHaltingDurationSum="1246.00" startedHalts="17.00" meanVehicleNumber="13.23" maxVehicleNumber="20" />
   <interval begin="22200.00" end="22300.00" id="e2_L197#1_3_1" sampledSeconds="2296.37" nVehEntered="10" nVehLeft="1" nVehSeen="30" meanSpeed="0.13" meanTimeLoss="75.74" meanOccupancy="48.39" maxOccupancy="61.26" meanMaxJamLengthInVehicles="22.58" meanMaxJamLengthInMeters="157.98" maxJamLengthInVehicles="29" maxJamLengthInMeters="207.28" jamLengthInVehiclesSum="2258" jamLengthInMetersSum="15797.53" meanHaltingDuration="118.03" maxHaltingDuration="212.00" haltingDurationSum="3541.00" meanIntervalHaltingDuration="75.40" maxIntervalHaltingDuration="100.00" intervalHaltingDurationSum="2262.00" startedHalts="11.00" meanVehicleNumber="22.97" maxVehicleNumber="29" />
   <interval begin="22300.00" end="22400.00" id="e2_L197#1_3_1" sampledSeconds="3028.80" nVehEntered="2" nVehLeft="1" nVehSeen="31" meanSpeed="0.09" meanTimeLoss="96.98" meanOccupancy="63.83" maxOccupancy="65.48" meanMaxJamLengthInVehicles="28.35" meanMaxJamLengthInMeters="198.68" maxJamLengthInVehicles="31" maxJamLengthInMeters="216.75" jamLengthInVehiclesSum="2989" jamLengthInMetersSum="20914.31" meanHaltingDuration="138.19" maxHaltingDuration="265.00" haltingDurationSum="6357.00" meanIntervalHaltingDuration="65.22" maxIntervalHaltingDuration="100.00" intervalHaltingDurationSum="3000.00" startedHalts="18.00" meanVehicleNumber="30.29" maxVehicleNumber="31" />
   <interval begin="22400.00" end="22500.00" id="e2_L197#1_3_1" sampledSeconds="3000.00" nVehEntered="0" nVehLeft="0" nVehSeen="30" meanSpeed="0.00" meanTimeLoss="100.00" meanOccupancy="63.37" maxOccupancy="63.37" meanMaxJamLengthInVehicles="30.00" meanMaxJamLengthInMeters="207.36" maxJamLengthInVehicles="30" maxJamLengthInMeters="207.37" jamLengthInVehiclesSum="3000" jamLengthInMetersSum="20736.03" meanHaltingDuration="206.03" maxHaltingDuration="365.00" haltingDurationSum="6181.00" meanIntervalHaltingDuration="100.00" maxIntervalHaltingDuration="100.00" intervalHaltingDurationSum="3000.00" startedHalts="0.00" meanVehicleNumber="30.00" maxVehicleNumber="30" />
   <interval begin="22500.00" end="22600.00" id="e2_L197#1_3_1" sampledSeconds="3000.00" nVehEntered="0" nVehLeft="0" nVehSeen="30" meanSpeed="0.00" meanTimeLoss="100.00" meanOccupancy="63.37" maxOccupancy="63.37" meanMaxJamLengthInVehicles="30.00" meanMaxJamLengthInMeters="207.36" maxJamLengthInVehicles="30" maxJamLengthInMeters="207.36" jamLengthInVehiclesSum="3000" jamLengthInMetersSum="20736.01" meanHaltingDuration="306.03" maxHaltingDuration="465.00" haltingDurationSum="9181.00" meanIntervalHaltingDuration="100.00" maxIntervalHaltingDuration="100.00" intervalHaltingDurationSum="3000.00" startedHalts="0.00" meanVehicleNumber="30.00" maxVehicleNumber="30" />
   <interval begin="22600.00" end="22700.00" id="e2_L197#1_3_1" sampledSeconds="3000.00" nVehEntered="0" nVehLeft="0" nVehSeen="30" meanSpeed="0.00" meanTimeLoss="100.00" meanOccupancy="63.37" maxOccupancy="63.37" meanMaxJamLengthInVehicles="30.00" meanMaxJamLengthInMeters="207.36" maxJamLengthInVehicles="30" maxJamLengthInMeters="207.36" jamLengthInVehiclesSum="3000" jamLengthInMetersSum="20736.01" meanHaltingDuration="406.03" maxHaltingDuration="565.00" haltingDurationSum="12181.00" meanIntervalHaltingDuration="100.00" maxIntervalHaltingDuration="100.00" intervalHaltingDurationSum="3000.00" startedHalts="0.00" meanVehicleNumber="30.00" maxVehicleNumber="30" />
   <interval begin="22700.00" end="22800.00" id="e2_L197#1_3_1" sampledSeconds="3000.00" nVehEntered="0" nVehLeft="0" nVehSeen="30" meanSpeed="0.00" meanTimeLoss="100.00" meanOccupancy="63.37" maxOccupancy="63.37" meanMaxJamLengthInVehicles="30.00" meanMaxJamLengthInMeters="207.36" maxJamLengthInVehicles="30" maxJamLengthInMeters="207.36" jamLengthInVehiclesSum="3000" jamLengthInMetersSum="20736.01" meanHaltingDuration="506.03" maxHaltingDuration="665.00" haltingDurationSum="15181.00" meanIntervalHaltingDuration="100.00" maxIntervalHaltingDuration="100.00" intervalHaltingDurationSum="3000.00" startedHalts="0.00" meanVehicleNumber="30.00" maxVehicleNumber="30" />
   <interval begin="22800.00" end="22900.00" id="e2_L197#1_3_1" sampledSeconds="3000.00" nVehEntered="0" nVehLeft="0" nVehSeen="30" meanSpeed="0.00" meanTimeLoss="100.00" meanOccupancy="63.37" maxOccupancy="63.37" meanMaxJamLengthInVehicles="30.00" meanMaxJamLengthInMeters="207.36" maxJamLengthInVehicles="30" maxJamLengthInMeters="207.36" jamLengthInVehiclesSum="3000" jamLengthInMetersSum="20736.01" meanHaltingDuration="606.03" maxHaltingDuration="765.00" haltingDurationSum="18181.00" meanIntervalHaltingDuration="100.00" maxIntervalHaltingDuration="100.00" intervalHaltingDurationSum="3000.00" startedHalts="0.00" meanVehicleNumber="30.00" maxVehicleNumber="30" />
   <interval begin="22900.00" end="23000.00" id="e2_L197#1_3_1" sampledSeconds="3000.00" nVehEntered="0" nVehLeft="0" nVehSeen="30" meanSpeed="0.00" meanTimeLoss="100.00" meanOccupancy="63.37" maxOccupancy="63.37" meanMaxJamLengthInVehicles="30.00" meanMaxJamLengthInMeters="207.36" maxJamLengthInVehicles="30" maxJamLengthInMeters="207.36" jamLengthInVehiclesSum="3000" jamLengthInMetersSum="20736.01" meanHaltingDuration="706.03" maxHaltingDuration="865.00" haltingDurationSum="21181.00" meanIntervalHaltingDuration="100.00" maxIntervalHaltingDuration="100.00" intervalHaltingDurationSum="3000.00" startedHalts="0.00" meanVehicleNumber="30.00" maxVehicleNumber="30" />
   <interval begin="23000.00" end="23100.00" id="e2_L197#1_3_1" sampledSeconds="3000.00" nVehEntered="0" nVehLeft="0" nVehSeen="30" meanSpeed="0.00" meanTimeLoss="100.00" meanOccupancy="63.37" maxOccupancy="63.37" meanMaxJamLengthInVehicles="30.00" meanMaxJamLengthInMeters="207.36" maxJamLengthInVehicles="30" maxJamLengthInMeters="207.36" jamLengthInVehiclesSum="3000" jamLengthInMetersSum="20736.01" meanHaltingDuration="806.03" maxHaltingDuration="965.00" haltingDurationSum="24181.00" meanIntervalHaltingDuration="100.00" maxIntervalHaltingDuration="100.00" intervalHaltingDurationSum="3000.00" startedHalts="0.00" meanVehicleNumber="30.00" maxVehicleNumber="30" />
   <interval begin="23100.00" end="23200.00" id="e2_L197#1_3_1" sampledSeconds="3000.00" nVehEntered="0" nVehLeft="0" nVehSeen="30" meanSpeed="0.00" meanTimeLoss="100.00" meanOccupancy="63.37" maxOccupancy="63.37" meanMaxJamLengthInVehicles="30.00" meanMaxJamLengthInMeters="207.36" maxJamLengthInVehicles="30" maxJamLengthInMeters="207.36" jamLengthInVehiclesSum="3000" jamLengthInMetersSum="20736.01" meanHaltingDuration="906.03" maxHaltingDuration="1065.00" haltingDurationSum="27181.00" meanIntervalHaltingDuration="100.00" maxIntervalHaltingDuration="100.00" intervalHaltingDurationSum="3000.00" startedHalts="0.00" meanVehicleNumber="30.00" maxVehicleNumber="30" />
   <interval begin="23200.00" end="23300.00" id="e2_L197#1_3_1" sampledSeconds="3000.00" nVehEntered="0" nVehLeft="0" nVehSeen="30" meanSpeed="0.00" meanTimeLoss="100.00" meanOccupancy="63.37" maxOccupancy="63.37" meanMaxJamLengthInVehicles="30.00" meanMaxJamLengthInMeters="207.36" maxJamLengthInVehicles="30" maxJamLengthInMeters="207.36" jamLengthInVehiclesSum="3000" jamLengthInMetersSum="20736.01" meanHaltingDuration="1006.03" maxHaltingDuration="1165.00" haltingDurationSum="30181.00" meanIntervalHaltingDuration="100.00" maxIntervalHaltingDuration="100.00" intervalHaltingDurationSum="3000.00" startedHalts="0.00" meanVehicleNumber="30.00" maxVehicleNumber="30" />
   <interval begin="23300.00" end="23400.00" id="e2_L197#1_3_1" sampledSeconds="3000.00" nVehEntered="0" nVehLeft="0" nVehSeen="30" meanSpeed="0.00" meanTimeLoss="100.00" meanOccupancy="63.37" maxOccupancy="63.37" meanMaxJamLengthInVehicles="30.00" meanMaxJamLengthInMeters="207.36" maxJamLengthInVehicles="30" maxJamLengthInMeters="207.36" jamLengthInVehiclesSum="3000" jamLengthInMetersSum="20736.01" meanHaltingDuration="1106.03" maxHaltingDuration="1265.00" haltingDurationSum="33181.00" meanIntervalHaltingDuration="100.00" maxIntervalHaltingDuration="100.00" intervalHaltingDurationSum="3000.00" startedHalts="0.00" meanVehicleNumber="30.00" maxVehicleNumber="30" />
   <interval begin="23400.00" end="23500.00" id="e2_L197#1_3_1" sampledSeconds="2969.61" nVehEntered="1" nVehLeft="1" nVehSeen="31" meanSpeed="0.07" meanTimeLoss="95.23" meanOccupancy="62.58" maxOccupancy="63.37" meanMaxJamLengthInVehicles="29.65" meanMaxJamLengthInMeters="207.98" maxJamLengthInVehicles="30" maxJamLengthInMeters="214.19" jamLengthInVehiclesSum="2965" jamLengthInMetersSum="20798.10" meanHaltingDuration="1129.84" maxHaltingDuration="1365.00" haltingDurationSum="35025.00" meanIntervalHaltingDuration="93.77" maxIntervalHaltingDuration="100.00" intervalHaltingDurationSum="2907.00" startedHalts="2.00" meanVehicleNumber="29.70" maxVehicleNumber="30" />
   <interval begin="23500.00" end="23600.00" id="e2_L197#1_3_1" sampledSeconds="3087.00" nVehEntered="1" nVehLeft="0" nVehSeen="31" meanSpeed="0.00" meanTimeLoss="99.55" meanOccupancy="65.18" maxOccupancy="65.48" meanMaxJamLengthInVehicles="30.82" meanMaxJamLengthInMeters="213.17" maxJamLengthInVehicles="31" maxJamLengthInMeters="214.38" jamLengthInVehiclesSum="3082" jamLengthInMetersSum="21316.76" meanHaltingDuration="1190.88" maxHaltingDuration="1465.00" haltingDurationSum="38108.00" meanIntervalHaltingDuration="96.38" maxIntervalHaltingDuration="100.00" intervalHaltingDurationSum="3084.00" startedHalts="2.00" meanVehicleNumber="30.87" maxVehicleNumber="31" />
   <interval begin="23600.00" end="23700.00" id="e2_L197#1_3_1" sampledSeconds="3100.00" nVehEntered="0" nVehLeft="0" nVehSeen="31" meanSpeed="0.00" meanTimeLoss="100.00" meanOccupancy="65.48" maxOccupancy="65.48" meanMaxJamLengthInVehicles="31.00" meanMaxJamLengthInMeters="214.35" maxJamLengthInVehicles="31" maxJamLengthInMeters="214.35" jamLengthInVehiclesSum="3100" jamLengthInMetersSum="21435.12" meanHaltingDuration="1329.26" maxHaltingDuration="1565.00" haltingDurationSum="41207.00" meanIntervalHaltingDuration="100.00" maxIntervalHaltingDuration="100.00" intervalHaltingDurationSum="3100.00" startedHalts="0.00" meanVehicleNumber="31.00" maxVehicleNumber="31" />
   <interval begin="23700.00" end="23800.00" id="e2_L197#1_3_1" sampledSeconds="3100.00" nVehEntered="0" nVehLeft="0" nVehSeen="31" meanSpeed="0.00" meanTimeLoss="100.00" meanOccupancy="65.48" maxOccupancy="65.48" meanMaxJamLengthInVehicles="31.00" meanMaxJamLengthInMeters="214.35" maxJamLengthInVehicles="31" maxJamLengthInMeters="214.35" jamLengthInVehiclesSum="3100" jamLengthInMetersSum="21435.12" meanHaltingDuration="1429.26" maxHaltingDuration="1665.00" haltingDurationSum="44307.00" meanIntervalHaltingDuration="100.00" maxIntervalHaltingDuration="100.00" intervalHaltingDurationSum="3100.00" startedHalts="0.00" meanVehicleNumber="31.00" maxVehicleNumber="31" />
   <interval begin="23800.00" end="23900.00" id="e2_L197#1_3_1" sampledSeconds="3052.04" nVehEntered="1" nVehLeft="1" nVehSeen="32" meanSpeed="0.08" meanTimeLoss="94.76" meanOccupancy="64.42" maxOccupancy="65.48" meanMaxJamLengthInVehicles="28.86" meanMaxJamLengthInMeters="201.92" maxJamLengthInVehicles="31" maxJamLengthInMeters="217.38" jamLengthInVehiclesSum="3021" jamLengthInMetersSum="21127.33" meanHaltingDuration="1029.17" maxHaltingDuration="1744.00" haltingDurationSum="47342.00" meanIntervalHaltingDuration="65.98" maxIntervalHaltingDuration="100.00" intervalHaltingDurationSum="3035.00" startedHalts="16.00" meanVehicleNumber="30.53" maxVehicleNumber="31" />
   <interval begin="23900.00" end="24000.00" id="e2_L197#1_3_1" sampledSeconds="3075.08" nVehEntered="0" nVehLeft="2" nVehSeen="31" meanSpeed="0.05" meanTimeLoss="98.81" meanOccupancy="64.80" maxOccupancy="65.48" meanMaxJamLengthInVehicles="29.53" meanMaxJamLengthInMeters="204.47" maxJamLengthInVehicles="31" maxJamLengthInMeters="215.96" jamLengthInVehiclesSum="3018" jamLengthInMetersSum="20868.27" meanHaltingDuration="517.04" maxHaltingDuration="1840.00" haltingDurationSum="26886.00" meanIntervalHaltingDuration="58.31" maxIntervalHaltingDuration="100.00" intervalHaltingDurationSum="3032.00" startedHalts="22.00" meanVehicleNumber="30.76" maxVehicleNumber="31" />
   <interval begin="24000.00" end="24100.00" id="e2_L197#1_3_1" sampledSeconds="2900.00" nVehEntered="0" nVehLeft="0" nVehSeen="29" meanSpeed="0.09" meanTimeLoss="99.31" meanOccupancy="61.26" maxOccupancy="61.26" meanMaxJamLengthInVehicles="26.16" meanMaxJamLengthInMeters="181.93" maxJamLengthInVehicles="29" maxJamLengthInMeters="213.45" jamLengthInVehiclesSum="2844" jamLengthInMetersSum="19800.77" meanHaltingDuration="285.07" maxHaltingDuration="1816.00" haltingDurationSum="15394.00" meanIntervalHaltingDuration="53.17" maxIntervalHaltingDuration="100.00" intervalHaltingDurationSum="2871.00" startedHalts="27.00" meanVehicleNumber="29.00" maxVehicleNumber="29" />
   <interval begin="24100.00" end="24200.00" id="e2_L197#1_3_1" sampledSeconds="2859.54" nVehEntered="1" nVehLeft="1" nVehSeen="30" meanSpeed="0.07" meanTimeLoss="94.76" meanOccupancy="60.27" maxOccupancy="61.26" meanMaxJamLengthInVehicles="28.55" meanMaxJamLengthInMeters="202.75" maxJamLengthInVehicles="29" maxJamLengthInMeters="216.39" jamLengthInVehiclesSum="2855" jamLengthInMetersSum="20274.51" meanHaltingDuration="191.80" maxHaltingDuration="316.00" haltingDurationSum="5754.00" meanIntervalHaltingDuration="94.97" maxIntervalHaltingDuration="100.00" intervalHaltingDurationSum="2849.00" startedHalts="2.00" meanVehicleNumber="28.60" maxVehicleNumber="29" />
   <interval begin="24200.00" end="24300.00" id="e2_L197#1_3_1" sampledSeconds="2900.00" nVehEntered="0" nVehLeft="0" nVehSeen="29" meanSpeed="0.00" meanTimeLoss="100.00" meanOccupancy="61.26" maxOccupancy="61.26" meanMaxJamLengthInVehicles="29.00" meanMaxJamLengthInMeters="214.35" maxJamLengthInVehicles="29" maxJamLengthInMeters="214.37" jamLengthInVehiclesSum="2900" jamLengthInMetersSum="21435.15" meanHaltingDuration="293.45" maxHaltingDuration="416.00" haltingDurationSum="8510.00" meanIntervalHaltingDuration="100.00" maxIntervalHaltingDuration="100.00" intervalHaltingDurationSum="2900.00" startedHalts="0.00" meanVehicleNumber="29.00" maxVehicleNumber="29" />
   <interval begin="24300.00" end="24400.00" id="e2_L197#1_3_1" sampledSeconds="2900.00" nVehEntered="0" nVehLeft="0" nVehSeen="29" meanSpeed="0.00" meanTimeLoss="100.00" meanOccupancy="61.26" maxOccupancy="61.26" meanMaxJamLengthInVehicles="29.00" meanMaxJamLengthInMeters="214.35" maxJamLengthInVehicles="29" maxJamLengthInMeters="214.35" jamLengthInVehiclesSum="2900" jamLengthInMetersSum="21435.09" meanHaltingDuration="393.45" maxHaltingDuration="516.00" haltingDurationSum="11410.00" meanIntervalHaltingDuration="100.00" maxIntervalHaltingDuration="100.00" intervalHaltingDurationSum="2900.00" startedHalts="0.00" meanVehicleNumber="29.00" maxVehicleNumber="29" />
   <interval begin="24400.00" end="24500.00" id="e2_L197#1_3_1" sampledSeconds="2900.00" nVehEntered="0" nVehLeft="0" nVehSeen="29" meanSpeed="0.00" meanTimeLoss="100.00" meanOccupancy="61.26" maxOccupancy="61.26" meanMaxJamLengthInVehicles="29.00" meanMaxJamLengthInMeters="214.35" maxJamLengthInVehicles="29" maxJamLengthInMeters="214.35" jamLengthInVehiclesSum="2900" jamLengthInMetersSum="21435.09" meanHaltingDuration="493.45" maxHaltingDuration="616.00" haltingDurationSum="14310.00" meanIntervalHaltingDuration="100.00" maxIntervalHaltingDuration="100.00" intervalHaltingDurationSum="2900.00" startedHalts="0.00" meanVehicleNumber="29.00" maxVehicleNumber="29" />
   <interval begin="24500.00" end="24600.00" id="e2_L197#1_3_1" sampledSeconds="2900.00" nVehEntered="0" nVehLeft="0" nVehSeen="29" meanSpeed="0.00" meanTimeLoss="100.00" meanOccupancy="61.26" maxOccupancy="61.26" meanMaxJamLengthInVehicles="29.00" meanMaxJamLengthInMeters="214.35" maxJamLengthInVehicles="29" maxJamLengthInMeters="214.35" jamLengthInVehiclesSum="2900" jamLengthInMetersSum="21435.09" meanHaltingDuration="593.45" maxHaltingDuration="716.00" haltingDurationSum="17210.00" meanIntervalHaltingDuration="100.00" maxIntervalHaltingDuration="100.00" intervalHaltingDurationSum="2900.00" startedHalts="0.00" meanVehicleNumber="29.00" maxVehicleNumber="29" />
   <interval begin="24600.00" end="24700.00" id="e2_L197#1_3_1" sampledSeconds="2900.00" nVehEntered="0" nVehLeft="0" nVehSeen="29" meanSpeed="0.00" meanTimeLoss="100.00" meanOccupancy="61.26" maxOccupancy="61.26" meanMaxJamLengthInVehicles="29.00" meanMaxJamLengthInMeters="214.35" maxJamLengthInVehicles="29" maxJamLengthInMeters="214.35" jamLengthInVehiclesSum="2900" jamLengthInMetersSum="21435.09" meanHaltingDuration="693.45" maxHaltingDuration="816.00" haltingDurationSum="20110.00" meanIntervalHaltingDuration="100.00" maxIntervalHaltingDuration="100.00" intervalHaltingDurationSum="2900.00" startedHalts="0.00" meanVehicleNumber="29.00" maxVehicleNumber="29" />
   <interval begin="24700.00" end="24800.00" id="e2_L197#1_3_1" sampledSeconds="2900.00" nVehEntered="0" nVehLeft="0" nVehSeen="29" meanSpeed="0.01" meanTimeLoss="99.95" meanOccupancy="61.26" maxOccupancy="61.26" meanMaxJamLengthInVehicles="29.00" meanMaxJamLengthInMeters="214.61" maxJamLengthInVehicles="29" maxJamLengthInMeters="215.25" jamLengthInVehiclesSum="2900" jamLengthInMetersSum="21461.20" meanHaltingDuration="793.45" maxHaltingDuration="916.00" haltingDurationSum="23010.00" meanIntervalHaltingDuration="100.00" maxIntervalHaltingDuration="100.00" intervalHaltingDurationSum="2900.00" startedHalts="0.00" meanVehicleNumber="29.00" maxVehicleNumber="29" />
   <interval begin="24800.00" end="24900.00" id="e2_L197#1_3_1" sampledSeconds="2900.00" nVehEntered="0" nVehLeft="0" nVehSeen="29" meanSpeed="0.00" meanTimeLoss="99.98" meanOccupancy="61.26" maxOccupancy="61.26" meanMaxJamLengthInVehicles="29.00" meanMaxJamLengthInMeters="214.50" maxJamLengthInVehicles="29" maxJamLengthInMeters="215.25" jamLengthInVehiclesSum="2900" jamLengthInMetersSum="21449.92" meanHaltingDuration="893.45" maxHaltingDuration="1016.00" haltingDurationSum="25910.00" meanIntervalHaltingDuration="100.00" maxIntervalHaltingDuration="100.00" intervalHaltingDurationSum="2900.00" startedHalts="0.00" meanVehicleNumber="29.00" maxVehicleNumber="29" />
   <interval begin="24900.00" end="25000.00" id="e2_L197#1_3_1" sampledSeconds="2900.00" nVehEntered="0" nVehLeft="0" nVehSeen="29" meanSpeed="0.00" meanTimeLoss="100.00" meanOccupancy="61.26" maxOccupancy="61.26" meanMaxJamLengthInVehicles="29.00" meanMaxJamLengthInMeters="214.35" maxJamLengthInVehicles="29" maxJamLengthInMeters="214.35" jamLengthInVehiclesSum="2900" jamLengthInMetersSum="21435.07" meanHaltingDuration="993.45" maxHaltingDuration="1116.00" haltingDurationSum="28810.00" meanIntervalHaltingDuration="100.00" maxIntervalHaltingDuration="100.00" intervalHaltingDurationSum="2900.00" startedHalts="0.00" meanVehicleNumber="29.00" maxVehicleNumber="29" />
   <interval begin="25000.00" end="25100.00" id="e2_L197#1_3_1" sampledSeconds="2900.00" nVehEntered="0" nVehLeft="0" nVehSeen="29" meanSpeed="0.00" meanTimeLoss="100.00" meanOccupancy="61.26" maxOccupancy="61.26" meanMaxJamLengthInVehicles="29.00" meanMaxJamLengthInMeters="214.35" maxJamLengthInVehicles="29" maxJamLengthInMeters="214.35" jamLengthInVehiclesSum="2900" jamLengthInMetersSum="21435.07" meanHaltingDuration="1093.45" maxHaltingDuration="1216.00" haltingDurationSum="31710.00" meanIntervalHaltingDuration="100.00" maxIntervalHaltingDuration="100.00" intervalHaltingDurationSum="2900.00" startedHalts="0.00" meanVehicleNumber="29.00" maxVehicleNumber="29" />
   <interval begin="25100.00" end="25200.00" id="e2_L197#1_3_1" sampledSeconds="2900.00" nVehEntered="0" nVehLeft="0" nVehSeen="29" meanSpeed="0.00" meanTimeLoss="100.00" meanOccupancy="61.26" maxOccupancy="61.26" meanMaxJamLengthInVehicles="29.00" meanMaxJamLengthInMeters="214.35" maxJamLengthInVehicles="29" maxJamLengthInMeters="214.35" jamLengthInVehiclesSum="2900" jamLengthInMetersSum="21435.07" meanHaltingDuration="1193.45" maxHaltingDuration="1316.00" haltingDurationSum="34610.00" meanIntervalHaltingDuration="100.00" maxIntervalHaltingDuration="100.00" intervalHaltingDurationSum="2900.00" startedHalts="0.00" meanVehicleNumber="29.00" maxVehicleNumber="29" />
   <interval begin="25200.00" end="25300.00" id="e2_L197#1_3_1" sampledSeconds="2900.00" nVehEntered="0" nVehLeft="0" nVehSeen="29" meanSpeed="0.00" meanTimeLoss="100.00" meanOccupancy="61.26" maxOccupancy="61.26" meanMaxJamLengthInVehicles="29.00" meanMaxJamLengthInMeters="214.35" maxJamLengthInVehicles="29" maxJamLengthInMeters="214.35" jamLengthInVehiclesSum="2900" jamLengthInMetersSum="21435.07" meanHaltingDuration="1293.45" maxHaltingDuration="1416.00" haltingDurationSum="37510.00" meanIntervalHaltingDuration="100.00" maxIntervalHaltingDuration="100.00" intervalHaltingDurationSum="2900.00" startedHalts="0.00" meanVehicleNumber="29.00" maxVehicleNumber="29" />
   <interval begin="25300.00" end="25400.00" id="e2_L197#1_3_1" sampledSeconds="2900.00" nVehEntered="0" nVehLeft="0" nVehSeen="29" meanSpeed="0.00" meanTimeLoss="100.00" meanOccupancy="61.26" maxOccupancy="61.26" meanMaxJamLengthInVehicles="29.00" meanMaxJamLengthInMeters="214.35" maxJamLengthInVehicles="29" maxJamLengthInMeters="214.35" jamLengthInVehiclesSum="2900" jamLengthInMetersSum="21435.07" meanHaltingDuration="1393.45" maxHaltingDuration="1516.00" haltingDurationSum="40410.00" meanIntervalHaltingDuration="100.00" maxIntervalHaltingDuration="100.00" intervalHaltingDurationSum="2900.00" startedHalts="0.00" meanVehicleNumber="29.00" maxVehicleNumber="29" />
   <interval begin="25400.00" end="25500.00" id="e2_L197#1_3_1" sampledSeconds="2798.50" nVehEntered="0" nVehLeft="4" nVehSeen="29" meanSpeed="0.16" meanTimeLoss="95.27" meanOccupancy="58.87" maxOccupancy="61.26" meanMaxJamLengthInVehicles="26.18" meanMaxJamLengthInMeters="198.87" maxJamLengthInVehicles="29" maxJamLengthInMeters="218.40" jamLengthInVehiclesSum="2741" jamLengthInMetersSum="20815.15" meanHaltingDuration="1052.59" maxHaltingDuration="1616.00" haltingDurationSum="43156.00" meanIntervalHaltingDuration="66.97" maxIntervalHaltingDuration="100.00" intervalHaltingDurationSum="2746.00" startedHalts="14.00" meanVehicleNumber="28.00" maxVehicleNumber="29" />
   <interval begin="25500.00" end="25600.00" id="e2_L197#1_3_1" sampledSeconds="2409.79" nVehEntered="6" nVehLeft="5" nVehSeen="31" meanSpeed="0.51" meanTimeLoss="74.57" meanOccupancy="50.64" maxOccupancy="54.92" meanMaxJamLengthInVehicles="17.65" meanMaxJamLengthInMeters="141.96" maxJamLengthInVehicles="26" maxJamLengthInMeters="216.75" jamLengthInVehiclesSum="1931" jamLengthInMetersSum="15353.20" meanHaltingDuration="138.57" maxHaltingDuration="1635.00" haltingDurationSum="18707.00" meanIntervalHaltingDuration="15.10" maxIntervalHaltingDuration="74.00" intervalHaltingDurationSum="2038.00" startedHalts="117.00" meanVehicleNumber="24.12" maxVehicleNumber="26" />
   <interval begin="25600.00" end="25700.00" id="e2_L197#1_3_1" sampledSeconds="1980.63" nVehEntered="9" nVehLeft="13" nVehSeen="35" meanSpeed="1.19" meanTimeLoss="51.22" meanOccupancy="41.34" maxOccupancy="54.36" meanMaxJamLengthInVehicles="9.70" meanMaxJamLengthInMeters="83.69" maxJamLengthInVehicles="24" maxJamLengthInMeters="203.09" jamLengthInVehiclesSum="1112" jamLengthInMetersSum="9361.36" meanHaltingDuration="15.40" maxHaltingDuration="84.00" haltingDurationSum="2264.00" meanIntervalHaltingDuration="8.35" maxIntervalHaltingDuration="45.00" intervalHaltingDurationSum="1227.00" startedHalts="124.00" meanVehicleNumber="19.87" maxVehicleNumber="26" />
   <interval begin="25700.00" end="25800.00" id="e2_L197#1_3_1" sampledSeconds="2481.00" nVehEntered="3" nVehLeft="0" nVehSeen="25" meanSpeed="0.01" meanTimeLoss="99.19" meanOccupancy="52.41" maxOccupancy="52.81" meanMaxJamLengthInVehicles="24.75" meanMaxJamLengthInMeters="212.69" maxJamLengthInVehicles="25" maxJamLengthInMeters="214.47" jamLengthInVehiclesSum="2475" jamLengthInMetersSum="21269.17" meanHaltingDuration="119.56" maxHaltingDuration="144.00" haltingDurationSum="2989.00" meanIntervalHaltingDuration="99.16" maxIntervalHaltingDuration="100.00" intervalHaltingDurationSum="2479.00" startedHalts="4.00" meanVehicleNumber="24.81" maxVehicleNumber="25" />