<?xml version="1.0" encoding="UTF-8"?>

<!-- generated on Sun Feb 17 15:57:00 2019 by 
<configuration xmlns:xsi="http://www.w3.org/2001/XMLSchema-instance" xsi:noNamespaceSchemaLocation="http://sumo.dlr.de/xsd/Configuration.xsd">

    <input>
        <net-file value="/home/sda/Documents/sumo-sathorn-ray/models/sathorn-morning/sathorn_w_fixed_20160404.net.xml"/>
        <route-files value="/home/sda/Documents/sumo-sathorn-ray/models/sathorn-morning/Great-route/sathorn_w_20160422edit2.rou.xml"/>
        <additional-files value="/home/sda/Documents/sumo-sathorn-ray/models/sathorn-morning/sathon_wide_tls_20160418_edited.add.xml,/home/sda/Documents/sumo-sathorn-ray/detectors/sathorn_w_detectors.add.xml"/>
    </input>

    <time>
        <begin value="21600"/>
        <end value="32400"/>
        <step-length value="1"/>
    </time>

    <processing>
        <no-internal-links value="true"/>
        <ignore-junction-blocker value="-1"/>
        <time-to-teleport value="-1"/>
        <eager-insert value="true"/>
        <time-to-impatience value="300"/>
    </processing>

    <report>
        <no-warnings value="true"/>
    </report>

    <random_number>
        <random value="false"/>
        <seed value="20"/>
    </random_number>

    <gui_only>
        <gui-settings-file value="/home/sda/Documents/sumo-sathorn-ray/gui-settings/gui-settings-file-surasak.xml"/>
        <quit-on-end value="true"/>
        <start value="true"/>
        <tracker-interval value="1"/>
    </gui_only>

</configuration>
-->

<detector xmlns:xsi="http://www.w3.org/2001/XMLSchema-instance" xsi:noNamespaceSchemaLocation="http://sumo.dlr.de/xsd/det_e2_file.xsd">
   <interval begin="21600.00" end="21700.00" id="e2_L25_0_3" sampledSeconds="0.00" nVehEntered="0" nVehLeft="0" nVehSeen="0" meanSpeed="-1.00" meanTimeLoss="-1.00" meanOccupancy="0.00" maxOccupancy="0.00" meanMaxJamLengthInVehicles="0.00" meanMaxJamLengthInMeters="0.00" maxJamLengthInVehicles="0" maxJamLengthInMeters="0.00" jamLengthInVehiclesSum="0" jamLengthInMetersSum="0.00" meanHaltingDuration="0.00" maxHaltingDuration="0.00" haltingDurationSum="0.00" meanIntervalHaltingDuration="0.00" maxIntervalHaltingDuration="0.00" intervalHaltingDurationSum="0.00" startedHalts="0.00" meanVehicleNumber="0.00" maxVehicleNumber="0" />
   <interval begin="21700.00" end="21800.00" id="e2_L25_0_3" sampledSeconds="122.54" nVehEntered="8" nVehLeft="4" nVehSeen="8" meanSpeed="10.71" meanTimeLoss="2.19" meanOccupancy="2.36" maxOccupancy="9.58" meanMaxJamLengthInVehicles="0.00" meanMaxJamLengthInMeters="0.00" maxJamLengthInVehicles="0" maxJamLengthInMeters="0.00" jamLengthInVehiclesSum="0" jamLengthInMetersSum="0.00" meanHaltingDuration="0.00" maxHaltingDuration="0.00" haltingDurationSum="0.00" meanIntervalHaltingDuration="0.00" maxIntervalHaltingDuration="0.00" intervalHaltingDurationSum="0.00" startedHalts="0.00" meanVehicleNumber="1.28" maxVehicleNumber="5" />
   <interval begin="21800.00" end="21900.00" id="e2_L25_0_3" sampledSeconds="786.63" nVehEntered="56" nVehLeft="53" nVehSeen="60" meanSpeed="7.42" meanTimeLoss="5.29" meanOccupancy="15.07" maxOccupancy="25.50" meanMaxJamLengthInVehicles="1.70" meanMaxJamLengthInMeters="10.12" maxJamLengthInVehicles="8" maxJamLengthInMeters="47.95" jamLengthInVehiclesSum="179" jamLengthInMetersSum="1062.75" meanHaltingDuration="18.25" maxHaltingDuration="37.00" haltingDurationSum="146.00" meanIntervalHaltingDuration="18.25" maxIntervalHaltingDuration="37.00" intervalHaltingDurationSum="146.00" startedHalts="16.00" meanVehicleNumber="8.12" maxVehicleNumber="14" />
   <interval begin="21900.00" end="22000.00" id="e2_L25_0_3" sampledSeconds="463.93" nVehEntered="28" nVehLeft="30" nVehSeen="35" meanSpeed="10.01" meanTimeLoss="2.54" meanOccupancy="8.78" maxOccupancy="13.73" meanMaxJamLengthInVehicles="0.01" meanMaxJamLengthInMeters="0.05" maxJamLengthInVehicles="1" maxJamLengthInMeters="4.62" jamLengthInVehiclesSum="1" jamLengthInMetersSum="4.62" meanHaltingDuration="4.25" maxHaltingDuration="13.00" haltingDurationSum="17.00" meanIntervalHaltingDuration="1.00" maxIntervalHaltingDuration="2.00" intervalHaltingDurationSum="4.00" startedHalts="3.00" meanVehicleNumber="4.80" maxVehicleNumber="8" />
   <interval begin="22000.00" end="22100.00" id="e2_L25_0_3" sampledSeconds="931.34" nVehEntered="92" nVehLeft="92" nVehSeen="97" meanSpeed="7.84" meanTimeLoss="3.58" meanOccupancy="17.64" maxOccupancy="28.61" meanMaxJamLengthInVehicles="1.25" meanMaxJamLengthInMeters="5.15" maxJamLengthInVehicles="4" maxJamLengthInMeters="19.33" jamLengthInVehiclesSum="125" jamLengthInMetersSum="515.36" meanHaltingDuration="8.18" maxHaltingDuration="37.00" haltingDurationSum="139.00" meanIntervalHaltingDuration="8.18" maxIntervalHaltingDuration="37.00" intervalHaltingDurationSum="139.00" startedHalts="32.00" meanVehicleNumber="9.71" maxVehicleNumber="16" />
   <interval begin="22100.00" end="22200.00" id="e2_L25_0_3" sampledSeconds="630.03" nVehEntered="22" nVehLeft="22" nVehSeen="27" meanSpeed="6.79" meanTimeLoss="10.65" meanOccupancy="12.19" maxOccupancy="15.69" meanMaxJamLengthInVehicles="1.70" meanMaxJamLengthInMeters="10.36" maxJamLengthInVehicles="5" maxJamLengthInMeters="32.64" jamLengthInVehiclesSum="172" jamLengthInMetersSum="1044.81" meanHaltingDuration="11.25" maxHaltingDuration="45.00" haltingDurationSum="180.00" meanIntervalHaltingDuration="11.25" maxIntervalHaltingDuration="45.00" intervalHaltingDurationSum="180.00" startedHalts="19.00" meanVehicleNumber="6.42" maxVehicleNumber="8" />
   <interval begin="22200.00" end="22300.00" id="e2_L25_0_3" sampledSeconds="770.07" nVehEntered="82" nVehLeft="80" nVehSeen="87" meanSpeed="9.84" meanTimeLoss="1.87" meanOccupancy="14.51" maxOccupancy="27.83" meanMaxJamLengthInVehicles="0.25" meanMaxJamLengthInMeters="1.06" maxJamLengthInVehicles="3" maxJamLengthInMeters="12.89" jamLengthInVehiclesSum="25" jamLengthInMetersSum="105.69" meanHaltingDuration="4.83" maxHaltingDuration="11.00" haltingDurationSum="29.00" meanIntervalHaltingDuration="4.83" maxIntervalHaltingDuration="11.00" intervalHaltingDurationSum="29.00" startedHalts="11.00" meanVehicleNumber="8.07" maxVehicleNumber="16" />
   <interval begin="22300.00" end="22400.00" id="e2_L25_0_3" sampledSeconds="879.13" nVehEntered="76" nVehLeft="74" nVehSeen="83" meanSpeed="6.55" meanTimeLoss="5.04" meanOccupancy="16.82" maxOccupancy="21.58" meanMaxJamLengthInVehicles="2.41" meanMaxJamLengthInMeters="11.89" maxJamLengthInVehicles="9" maxJamLengthInMeters="48.49" jamLengthInVehiclesSum="245" jamLengthInMetersSum="1207.02" meanHaltingDuration="10.61" maxHaltingDuration="42.00" haltingDurationSum="244.00" meanIntervalHaltingDuration="10.00" maxIntervalHaltingDuration="35.00" intervalHaltingDurationSum="230.00" startedHalts="28.00" meanVehicleNumber="9.12" maxVehicleNumber="14" />
   <interval begin="22400.00" end="22500.00" id="e2_L25_0_3" sampledSeconds="766.26" nVehEntered="32" nVehLeft="35" nVehSeen="41" meanSpeed="8.50" meanTimeLoss="5.96" meanOccupancy="14.87" maxOccupancy="21.35" meanMaxJamLengthInVehicles="1.25" meanMaxJamLengthInMeters="7.58" maxJamLengthInVehicles="4" maxJamLengthInMeters="26.68" jamLengthInVehiclesSum="125" jamLengthInMetersSum="758.27" meanHaltingDuration="9.50" maxHaltingDuration="36.00" haltingDurationSum="95.00" meanIntervalHaltingDuration="9.50" maxIntervalHaltingDuration="36.00" intervalHaltingDurationSum="95.00" startedHalts="11.00" meanVehicleNumber="7.87" maxVehicleNumber="11" />
   <interval begin="22500.00" end="22600.00" id="e2_L25_0_3" sampledSeconds="666.96" nVehEntered="38" nVehLeft="37" nVehSeen="44" meanSpeed="10.18" meanTimeLoss="2.80" meanOccupancy="12.81" maxOccupancy="23.54" meanMaxJamLengthInVehicles="0.29" meanMaxJamLengthInMeters="1.60" maxJamLengthInVehicles="3" maxJamLengthInMeters="18.63" jamLengthInVehiclesSum="29" jamLengthInMetersSum="160.10" meanHaltingDuration="8.25" maxHaltingDuration="19.00" haltingDurationSum="33.00" meanIntervalHaltingDuration="8.25" maxIntervalHaltingDuration="19.00" intervalHaltingDurationSum="33.00" startedHalts="4.00" meanVehicleNumber="6.88" maxVehicleNumber="13" />
   <interval begin="22600.00" end="22700.00" id="e2_L25_0_3" sampledSeconds="903.26" nVehEntered="87" nVehLeft="90" nVehSeen="94" meanSpeed="8.24" meanTimeLoss="3.22" meanOccupancy="17.03" maxOccupancy="22.18" meanMaxJamLengthInVehicles="0.93" meanMaxJamLengthInMeters="5.69" maxJamLengthInVehicles="4" maxJamLengthInMeters="25.59" jamLengthInVehiclesSum="93" jamLengthInMetersSum="569.26" meanHaltingDuration="9.71" maxHaltingDuration="41.00" haltingDurationSum="136.00" meanIntervalHaltingDuration="7.43" maxIntervalHaltingDuration="25.00" intervalHaltingDurationSum="104.00" startedHalts="22.00" meanVehicleNumber="9.40" maxVehicleNumber="14" />
   <interval begin="22700.00" end="22800.00" id="e2_L25_0_3" sampledSeconds="509.93" nVehEntered="27" nVehLeft="26" nVehSeen="31" meanSpeed="6.51" meanTimeLoss="7.80" meanOccupancy="9.72" maxOccupancy="15.69" meanMaxJamLengthInVehicles="1.43" meanMaxJamLengthInMeters="8.99" maxJamLengthInVehicles="5" maxJamLengthInMeters="32.99" jamLengthInVehiclesSum="143" jamLengthInMetersSum="899.49" meanHaltingDuration="12.00" maxHaltingDuration="37.00" haltingDurationSum="156.00" meanIntervalHaltingDuration="12.00" maxIntervalHaltingDuration="37.00" intervalHaltingDurationSum="156.00" startedHalts="16.00" meanVehicleNumber="5.24" maxVehicleNumber="9" />
   <interval begin="22800.00" end="22900.00" id="e2_L25_0_3" sampledSeconds="662.25" nVehEntered="58" nVehLeft="54" nVehSeen="63" meanSpeed="9.40" meanTimeLoss="2.53" meanOccupancy="12.53" maxOccupancy="19.95" meanMaxJamLengthInVehicles="0.37" meanMaxJamLengthInMeters="1.99" maxJamLengthInVehicles="2" maxJamLengthInMeters="11.61" jamLengthInVehiclesSum="38" jamLengthInMetersSum="204.02" meanHaltingDuration="10.50" maxHaltingDuration="26.00" haltingDurationSum="42.00" meanIntervalHaltingDuration="10.50" maxIntervalHaltingDuration="26.00" intervalHaltingDurationSum="42.00" startedHalts="10.00" meanVehicleNumber="6.87" maxVehicleNumber="12" />
   <interval begin="22900.00" end="23000.00" id="e2_L25_0_3" sampledSeconds="1126.43" nVehEntered="26" nVehLeft="20" nVehSeen="35" meanSpeed="2.51" meanTimeLoss="25.72" meanOccupancy="22.03" maxOccupancy="29.61" meanMaxJamLengthInVehicles="7.78" meanMaxJamLengthInMeters="33.83" maxJamLengthInVehicles="10" maxJamLengthInMeters="46.58" jamLengthInVehiclesSum="808" jamLengthInMetersSum="3517.25" meanHaltingDuration="44.94" maxHaltingDuration="90.00" haltingDurationSum="809.00" meanIntervalHaltingDuration="44.11" maxIntervalHaltingDuration="90.00" intervalHaltingDurationSum="794.00" startedHalts="22.00" meanVehicleNumber="11.38" maxVehicleNumber="17" />
   <interval begin="23000.00" end="23100.00" id="e2_L25_0_3" sampledSeconds="1840.99" nVehEntered="59" nVehLeft="55" nVehSeen="74" meanSpeed="2.06" meanTimeLoss="20.78" meanOccupancy="35.94" maxOccupancy="45.18" meanMaxJamLengthInVehicles="14.26" meanMaxJamLengthInMeters="76.37" maxJamLengthInVehicles="17" maxJamLengthInMeters="95.87" jamLengthInVehiclesSum="1426" jamLengthInMetersSum="7637.10" meanHaltingDuration="110.89" maxHaltingDuration="183.00" haltingDurationSum="1996.00" meanIntervalHaltingDuration="79.28" maxIntervalHaltingDuration="100.00" intervalHaltingDurationSum="1427.00" startedHalts="13.00" meanVehicleNumber="18.63" maxVehicleNumber="25" />
   <interval begin="23100.00" end="23200.00" id="e2_L25_0_3" sampledSeconds="2045.89" nVehEntered="13" nVehLeft="10" nVehSeen="32" meanSpeed="0.73" meanTimeLoss="60.22" meanOccupancy="40.14" maxOccupancy="43.16" meanMaxJamLengthInVehicles="18.84" meanMaxJamLengthInMeters="108.37" maxJamLengthInVehicles="21" maxJamLengthInMeters="123.48" jamLengthInVehiclesSum="1884" jamLengthInMetersSum="10837.10" meanHaltingDuration="184.90" maxHaltingDuration="283.00" haltingDurationSum="3883.00" meanIntervalHaltingDuration="89.90" maxIntervalHaltingDuration="100.00" intervalHaltingDurationSum="1888.00" startedHalts="4.00" meanVehicleNumber="20.51" maxVehicleNumber="22" />
   <interval begin="23200.00" end="23300.00" id="e2_L25_0_3" sampledSeconds="2669.36" nVehEntered="76" nVehLeft="69" nVehSeen="98" meanSpeed="0.74" meanTimeLoss="25.62" meanOccupancy="52.01" maxOccupancy="63.27" meanMaxJamLengthInVehicles="23.83" meanMaxJamLengthInMeters="143.26" maxJamLengthInVehicles="28" maxJamLengthInMeters="172.41" jamLengthInVehiclesSum="2383" jamLengthInMetersSum="14325.68" meanHaltingDuration="202.45" maxHaltingDuration="383.00" haltingDurationSum="6276.00" meanIntervalHaltingDuration="77.19" maxIntervalHaltingDuration="100.00" intervalHaltingDurationSum="2393.00" startedHalts="27.00" meanVehicleNumber="27.05" maxVehicleNumber="35" />
   <interval begin="23300.00" end="23400.00" id="e2_L25_0_3" sampledSeconds="3077.21" nVehEntered="14" nVehLeft="10" nVehSeen="43" meanSpeed="0.17" meanTimeLoss="70.58" meanOccupancy="60.39" maxOccupancy="66.69" meanMaxJamLengthInVehicles="29.97" meanMaxJamLengthInMeters="186.18" maxJamLengthInVehicles="33" maxJamLengthInMeters="207.40" jamLengthInVehiclesSum="2997" jamLengthInMetersSum="18617.86" meanHaltingDuration="281.06" maxHaltingDuration="483.00" haltingDurationSum="9275.00" meanIntervalHaltingDuration="90.97" maxIntervalHaltingDuration="100.00" intervalHaltingDurationSum="3002.00" startedHalts="5.00" meanVehicleNumber="30.84" maxVehicleNumber="34" />
   <interval begin="23400.00" end="23500.00" id="e2_L25_0_3" sampledSeconds="3579.93" nVehEntered="26" nVehLeft="22" nVehSeen="59" meanSpeed="0.05" meanTimeLoss="60.46" meanOccupancy="69.99" maxOccupancy="72.58" meanMaxJamLengthInVehicles="35.24" meanMaxJamLengthInMeters="223.12" maxJamLengthInVehicles="37" maxJamLengthInMeters="235.42" jamLengthInVehiclesSum="3524" jamLengthInMetersSum="22312.03" meanHaltingDuration="311.80" maxHaltingDuration="583.00" haltingDurationSum="12784.00" meanIntervalHaltingDuration="85.58" maxIntervalHaltingDuration="100.00" intervalHaltingDurationSum="3509.00" startedHalts="19.00" meanVehicleNumber="35.90" maxVehicleNumber="40" />
   <interval begin="23500.00" end="23600.00" id="e2_L25_0_3" sampledSeconds="3700.00" nVehEntered="0" nVehLeft="0" nVehSeen="37" meanSpeed="0.00" meanTimeLoss="100.00" meanOccupancy="72.58" maxOccupancy="72.58" meanMaxJamLengthInVehicles="37.00" meanMaxJamLengthInMeters="235.32" maxJamLengthInVehicles="37" maxJamLengthInMeters="235.32" jamLengthInVehiclesSum="3700" jamLengthInMetersSum="23532.39" meanHaltingDuration="445.38" maxHaltingDuration="683.00" haltingDurationSum="16479.00" meanIntervalHaltingDuration="100.00" maxIntervalHaltingDuration="100.00" intervalHaltingDurationSum="3700.00" startedHalts="0.00" meanVehicleNumber="37.00" maxVehicleNumber="37" />
   <interval begin="23600.00" end="23700.00" id="e2_L25_0_3" sampledSeconds="3411.58" nVehEntered="1" nVehLeft="6" nVehSeen="38" meanSpeed="0.19" meanTimeLoss="88.44" meanOccupancy="66.83" maxOccupancy="72.58" meanMaxJamLengthInVehicles="28.05" meanMaxJamLengthInMeters="186.63" maxJamLengthInVehicles="37" maxJamLengthInMeters="236.36" jamLengthInVehiclesSum="3199" jamLengthInMetersSum="21363.94" meanHaltingDuration="176.55" maxHaltingDuration="728.00" haltingDurationSum="18361.00" meanIntervalHaltingDuration="30.44" maxIntervalHaltingDuration="93.00" intervalHaltingDurationSum="3166.00" startedHalts="71.00" meanVehicleNumber="34.13" maxVehicleNumber="37" />
   <interval begin="23700.00" end="23800.00" id="e2_L25_0_3" sampledSeconds="3367.11" nVehEntered="8" nVehLeft="6" nVehSeen="40" meanSpeed="0.04" meanTimeLoss="83.93" meanOccupancy="65.98" maxOccupancy="66.69" meanMaxJamLengthInVehicles="33.50" meanMaxJamLengthInMeters="233.05" maxJamLengthInVehicles="34" maxJamLengthInMeters="235.42" jamLengthInVehiclesSum="3350" jamLengthInMetersSum="23305.42" meanHaltingDuration="114.15" maxHaltingDuration="135.00" haltingDurationSum="3881.00" meanIntervalHaltingDuration="98.38" maxIntervalHaltingDuration="100.00" intervalHaltingDurationSum="3345.00" startedHalts="7.00" meanVehicleNumber="33.71" maxVehicleNumber="34" />
   <interval begin="23800.00" end="23900.00" id="e2_L25_0_3" sampledSeconds="3400.00" nVehEntered="0" nVehLeft="0" nVehSeen="34" meanSpeed="0.00" meanTimeLoss="100.00" meanOccupancy="66.69" maxOccupancy="66.69" meanMaxJamLengthInVehicles="34.00" meanMaxJamLengthInMeters="235.32" maxJamLengthInVehicles="34" maxJamLengthInMeters="235.32" jamLengthInVehiclesSum="3400" jamLengthInMetersSum="23532.42" meanHaltingDuration="214.15" maxHaltingDuration="235.00" haltingDurationSum="7281.00" meanIntervalHaltingDuration="100.00" maxIntervalHaltingDuration="100.00" intervalHaltingDurationSum="3400.00" startedHalts="0.00" meanVehicleNumber="34.00" maxVehicleNumber="34" />
   <interval begin="23900.00" end="24000.00" id="e2_L25_0_3" sampledSeconds="3347.00" nVehEntered="0" nVehLeft="2" nVehSeen="34" meanSpeed="0.04" meanTimeLoss="98.10" meanOccupancy="65.65" maxOccupancy="66.69" meanMaxJamLengthInVehicles="31.88" meanMaxJamLengthInMeters="221.42" maxJamLengthInVehicles="34" maxJamLengthInMeters="235.32" jamLengthInVehiclesSum="3313" jamLengthInMetersSum="23015.73" meanHaltingDuration="230.54" maxHaltingDuration="327.00" haltingDurationSum="10605.00" meanIntervalHaltingDuration="72.26" maxIntervalHaltingDuration="100.00" intervalHaltingDurationSum="3324.00" startedHalts="13.00" meanVehicleNumber="33.47" maxVehicleNumber="34" />
   <interval begin="24000.00" end="24100.00" id="e2_L25_0_3" sampledSeconds="2883.54" nVehEntered="57" nVehLeft="57" nVehSeen="89" meanSpeed="0.81" meanTimeLoss="30.29" meanOccupancy="56.12" maxOccupancy="65.10" meanMaxJamLengthInVehicles="20.52" meanMaxJamLengthInMeters="145.62" maxJamLengthInVehicles="32" maxJamLengthInMeters="235.59" jamLengthInVehiclesSum="2155" jamLengthInMetersSum="15183.17" meanHaltingDuration="58.84" maxHaltingDuration="352.00" haltingDurationSum="8591.00" meanIntervalHaltingDuration="15.36" maxIntervalHaltingDuration="64.00" intervalHaltingDurationSum="2243.00" startedHalts="126.00" meanVehicleNumber="29.14" maxVehicleNumber="35" />
   <interval begin="24100.00" end="24200.00" id="e2_L25_0_3" sampledSeconds="3371.46" nVehEntered="8" nVehLeft="6" nVehSeen="40" meanSpeed="0.02" meanTimeLoss="84.15" meanOccupancy="66.08" maxOccupancy="66.69" meanMaxJamLengthInVehicles="33.57" meanMaxJamLengthInMeters="232.57" maxJamLengthInVehicles="34" maxJamLengthInMeters="235.42" jamLengthInVehiclesSum="3357" jamLengthInMetersSum="23257.50" meanHaltingDuration="132.21" maxHaltingDuration="164.00" haltingDurationSum="4495.00" meanIntervalHaltingDuration="97.62" maxIntervalHaltingDuration="100.00" intervalHaltingDurationSum="3319.00" startedHalts="4.00" meanVehicleNumber="33.76" maxVehicleNumber="34" />
   <interval begin="24200.00" end="24300.00" id="e2_L25_0_3" sampledSeconds="3400.00" nVehEntered="0" nVehLeft="0" nVehSeen="34" meanSpeed="0.00" meanTimeLoss="100.00" meanOccupancy="66.69" maxOccupancy="66.69" meanMaxJamLengthInVehicles="34.00" meanMaxJamLengthInMeters="235.35" maxJamLengthInVehicles="34" maxJamLengthInMeters="235.42" jamLengthInVehiclesSum="3400" jamLengthInMetersSum="23534.97" meanHaltingDuration="232.21" maxHaltingDuration="264.00" haltingDurationSum="7895.00" meanIntervalHaltingDuration="100.00" maxIntervalHaltingDuration="100.00" intervalHaltingDurationSum="3400.00" startedHalts="0.00" meanVehicleNumber="34.00" maxVehicleNumber="34" />
   <interval begin="24300.00" end="24400.00" id="e2_L25_0_3" sampledSeconds="3342.12" nVehEntered="2" nVehLeft="2" nVehSeen="36" meanSpeed="0.07" meanTimeLoss="92.30" meanOccupancy="65.45" maxOccupancy="66.69" meanMaxJamLengthInVehicles="33.07" meanMaxJamLengthInMeters="231.94" maxJamLengthInVehicles="34" maxJamLengthInMeters="235.52" jamLengthInVehiclesSum="3330" jamLengthInMetersSum="23350.63" meanHaltingDuration="283.11" maxHaltingDuration="362.00" haltingDurationSum="10758.00" meanIntervalHaltingDuration="85.79" maxIntervalHaltingDuration="100.00" intervalHaltingDurationSum="3260.00" startedHalts="6.00" meanVehicleNumber="33.44" maxVehicleNumber="34" />
   <interval begin="24400.00" end="24500.00" id="e2_L25_0_3" sampledSeconds="3398.94" nVehEntered="1" nVehLeft="1" nVehSeen="35" meanSpeed="0.00" meanTimeLoss="97.10" meanOccupancy="66.67" maxOccupancy="66.69" meanMaxJamLengthInVehicles="33.97" meanMaxJamLengthInMeters="235.11" maxJamLengthInVehicles="34" maxJamLengthInMeters="235.35" jamLengthInVehiclesSum="3397" jamLengthInMetersSum="23511.47" meanHaltingDuration="390.18" maxHaltingDuration="462.00" haltingDurationSum="13266.00" meanIntervalHaltingDuration="99.47" maxIntervalHaltingDuration="100.00" intervalHaltingDurationSum="3382.00" startedHalts="1.00" meanVehicleNumber="33.99" maxVehicleNumber="34" />
   <interval begin="24500.00" end="24600.00" id="e2_L25_0_3" sampledSeconds="3400.00" nVehEntered="0" nVehLeft="0" nVehSeen="34" meanSpeed="0.00" meanTimeLoss="100.00" meanOccupancy="66.69" maxOccupancy="66.69" meanMaxJamLengthInVehicles="34.00" meanMaxJamLengthInMeters="235.32" maxJamLengthInVehicles="34" maxJamLengthInMeters="235.32" jamLengthInVehiclesSum="3400" jamLengthInMetersSum="23532.39" meanHaltingDuration="490.18" maxHaltingDuration="562.00" haltingDurationSum="16666.00" meanIntervalHaltingDuration="100.00" maxIntervalHaltingDuration="100.00" intervalHaltingDurationSum="3400.00" startedHalts="0.00" meanVehicleNumber="34.00" maxVehicleNumber="34" />
   <interval begin="24600.00" end="24700.00" id="e2_L25_0_3" sampledSeconds="3400.00" nVehEntered="0" nVehLeft="0" nVehSeen="34" meanSpeed="0.00" meanTimeLoss="100.00" meanOccupancy="66.69" maxOccupancy="66.69" meanMaxJamLengthInVehicles="34.00" meanMaxJamLengthInMeters="235.32" maxJamLengthInVehicles="34" maxJamLengthInMeters="235.32" jamLengthInVehiclesSum="3400" jamLengthInMetersSum="23532.39" meanHaltingDuration="590.18" maxHaltingDuration="662.00" haltingDurationSum="20066.00" meanIntervalHaltingDuration="100.00" maxIntervalHaltingDuration="100.00" intervalHaltingDurationSum="3400.00" startedHalts="0.00" meanVehicleNumber="34.00" maxVehicleNumber="34" />
   <interval begin="24700.00" end="24800.00" id="e2_L25_0_3" sampledSeconds="3400.00" nVehEntered="0" nVehLeft="0" nVehSeen="34" meanSpeed="0.00" meanTimeLoss="100.00" meanOccupancy="66.69" maxOccupancy="66.69" meanMaxJamLengthInVehicles="34.00" meanMaxJamLengthInMeters="235.32" maxJamLengthInVehicles="34" maxJamLengthInMeters="235.32" jamLengthInVehiclesSum="3400" jamLengthInMetersSum="23532.39" meanHaltingDuration="690.18" maxHaltingDuration="762.00" haltingDurationSum="23466.00" meanIntervalHaltingDuration="100.00" maxIntervalHaltingDuration="100.00" intervalHaltingDurationSum="3400.00" startedHalts="0.00" meanVehicleNumber="34.00" maxVehicleNumber="34" />
   <interval begin="24800.00" end="24900.00" id="e2_L25_0_3" sampledSeconds="3400.00" nVehEntered="0" nVehLeft="0" nVehSeen="34" meanSpeed="0.00" meanTimeLoss="100.00" meanOccupancy="66.69" maxOccupancy="66.69" meanMaxJamLengthInVehicles="34.00" meanMaxJamLengthInMeters="235.32" maxJamLengthInVehicles="34" maxJamLengthInMeters="235.32" jamLengthInVehiclesSum="3400" jamLengthInMetersSum="23532.39" meanHaltingDuration="790.18" maxHaltingDuration="862.00" haltingDurationSum="26866.00" meanIntervalHaltingDuration="100.00" maxIntervalHaltingDuration="100.00" intervalHaltingDurationSum="3400.00" startedHalts="0.00" meanVehicleNumber="34.00" maxVehicleNumber="34" />
   <interval begin="24900.00" end="25000.00" id="e2_L25_0_3" sampledSeconds="3400.00" nVehEntered="0" nVehLeft="0" nVehSeen="34" meanSpeed="0.00" meanTimeLoss="100.00" meanOccupancy="66.69" maxOccupancy="66.69" meanMaxJamLengthInVehicles="34.00" meanMaxJamLengthInMeters="235.32" maxJamLengthInVehicles="34" maxJamLengthInMeters="235.32" jamLengthInVehiclesSum="3400" jamLengthInMetersSum="23532.39" meanHaltingDuration="890.18" maxHaltingDuration="962.00" haltingDurationSum="30266.00" meanIntervalHaltingDuration="100.00" maxIntervalHaltingDuration="100.00" intervalHaltingDurationSum="3400.00" startedHalts="0.00" meanVehicleNumber="34.00" maxVehicleNumber="34" />
   <interval begin="25000.00" end="25100.00" id="e2_L25_0_3" sampledSeconds="3400.00" nVehEntered="0" nVehLeft="0" nVehSeen="34" meanSpeed="0.00" meanTimeLoss="100.00" meanOccupancy="66.69" maxOccupancy="66.69" meanMaxJamLengthInVehicles="34.00" meanMaxJamLengthInMeters="235.32" maxJamLengthInVehicles="34" maxJamLengthInMeters="235.32" jamLengthInVehiclesSum="3400" jamLengthInMetersSum="23532.39" meanHaltingDuration="990.18" maxHaltingDuration="1062.00" haltingDurationSum="33666.00" meanIntervalHaltingDuration="100.00" maxIntervalHaltingDuration="100.00" intervalHaltingDurationSum="3400.00" startedHalts="0.00" meanVehicleNumber="34.00" maxVehicleNumber="34" />
   <interval begin="25100.00" end="25200.00" id="e2_L25_0_3" sampledSeconds="3400.00" nVehEntered="0" nVehLeft="0" nVehSeen="34" meanSpeed="0.00" meanTimeLoss="100.00" meanOccupancy="66.69" maxOccupancy="66.69" meanMaxJamLengthInVehicles="34.00" meanMaxJamLengthInMeters="235.32" maxJamLengthInVehicles="34" maxJamLengthInMeters="235.32" jamLengthInVehiclesSum="3400" jamLengthInMetersSum="23532.39" meanHaltingDuration="1090.18" maxHaltingDuration="1162.00" haltingDurationSum="37066.00" meanIntervalHaltingDuration="100.00" maxIntervalHaltingDuration="100.00" intervalHaltingDurationSum="3400.00" startedHalts="0.00" meanVehicleNumber="34.00" maxVehicleNumber="34" />
   <interval begin="25200.00" end="25300.00" id="e2_L25_0_3" sampledSeconds="3400.00" nVehEntered="0" nVehLeft="0" nVehSeen="34" meanSpeed="0.00" meanTimeLoss="100.00" meanOccupancy="66.69" maxOccupancy="66.69" meanMaxJamLengthInVehicles="34.00" meanMaxJamLengthInMeters="235.32" maxJamLengthInVehicles="34" maxJamLengthInMeters="235.32" jamLengthInVehiclesSum="3400" jamLengthInMetersSum="23532.39" meanHaltingDuration="1190.18" maxHaltingDuration="1262.00" haltingDurationSum="40466.00" meanIntervalHaltingDuration="100.00" maxIntervalHaltingDuration="100.00" intervalHaltingDurationSum="3400.00" startedHalts="0.00" meanVehicleNumber="34.00" maxVehicleNumber="34" />
   <interval begin="25300.00" end="25400.00" id="e2_L25_0_3" sampledSeconds="3400.00" nVehEntered="0" nVehLeft="0" nVehSeen="34" meanSpeed="0.00" meanTimeLoss="100.00" meanOccupancy="66.69" maxOccupancy="66.69" meanMaxJamLengthInVehicles="34.00" meanMaxJamLengthInMeters="235.32" maxJamLengthInVehicles="34" maxJamLengthInMeters="235.32" jamLengthInVehiclesSum="3400" jamLengthInMetersSum="23532.39" meanHaltingDuration="1290.18" maxHaltingDuration="1362.00" haltingDurationSum="43866.00" meanIntervalHaltingDuration="100.00" maxIntervalHaltingDuration="100.00" intervalHaltingDurationSum="3400.00" startedHalts="0.00" meanVehicleNumber="34.00" maxVehicleNumber="34" />
   <interval begin="25400.00" end="25500.00" id="e2_L25_0_3" sampledSeconds="3400.00" nVehEntered="0" nVehLeft="0" nVehSeen="34" meanSpeed="0.00" meanTimeLoss="100.00" meanOccupancy="66.69" maxOccupancy="66.69" meanMaxJamLengthInVehicles="34.00" meanMaxJamLengthInMeters="235.32" maxJamLengthInVehicles="34" maxJamLengthInMeters="235.32" jamLengthInVehiclesSum="3400" jamLengthInMetersSum="23532.39" meanHaltingDuration="1390.18" maxHaltingDuration="1462.00" haltingDurationSum="47266.00" meanIntervalHaltingDuration="100.00" maxIntervalHaltingDuration="100.00" intervalHaltingDurationSum="3400.00" startedHalts="0.00" meanVehicleNumber="34.00" maxVehicleNumber="34" />
   <interval begin="25500.00" end="25600.00" id="e2_L25_0_3" sampledSeconds="3391.44" nVehEntered="1" nVehLeft="2" nVehSeen="35" meanSpeed="0.01" meanTimeLoss="96.80" meanOccupancy="66.49" maxOccupancy="66.69" meanMaxJamLengthInVehicles="33.66" meanMaxJamLengthInMeters="233.08" maxJamLengthInVehicles="34" maxJamLengthInMeters="235.32" jamLengthInVehiclesSum="3377" jamLengthInMetersSum="23376.75" meanHaltingDuration="1298.67" maxHaltingDuration="1553.00" haltingDurationSum="50648.00" meanIntervalHaltingDuration="86.72" maxIntervalHaltingDuration="100.00" intervalHaltingDurationSum="3382.00" startedHalts="5.00" meanVehicleNumber="33.92" maxVehicleNumber="34" />
   <interval begin="25600.00" end="25700.00" id="e2_L25_0_3" sampledSeconds="3017.15" nVehEntered="15" nVehLeft="17" nVehSeen="48" meanSpeed="0.56" meanTimeLoss="60.05" meanOccupancy="58.95" maxOccupancy="63.72" meanMaxJamLengthInVehicles="20.30" meanMaxJamLengthInMeters="145.76" maxJamLengthInVehicles="33" maxJamLengthInMeters="239.81" jamLengthInVehiclesSum="2449" jamLengthInMetersSum="17442.38" meanHaltingDuration="263.12" maxHaltingDuration="1583.00" haltingDurationSum="42888.00" meanIntervalHaltingDuration="15.09" maxIntervalHaltingDuration="70.00" intervalHaltingDurationSum="2460.00" startedHalts="140.00" meanVehicleNumber="30.28" maxVehicleNumber="33" />
   <interval begin="25700.00" end="25800.00" id="e2_L25_0_3" sampledSeconds="3185.79" nVehEntered="17" nVehLeft="18" nVehSeen="48" meanSpeed="0.48" meanTimeLoss="63.82" meanOccupancy="61.94" maxOccupancy="66.37" meanMaxJamLengthInVehicles="20.68" meanMaxJamLengthInMeters="142.30" maxJamLengthInVehicles="33" maxJamLengthInMeters="227.92" jamLengthInVehiclesSum="2677" jamLengthInMetersSum="18218.44" meanHaltingDuration="18.64" maxHaltingDuration="55.00" haltingDurationSum="3411.00" meanIntervalHaltingDuration="15.47" maxIntervalHaltingDuration="55.00" intervalHaltingDurationSum="2832.00" startedHalts="160.00" meanVehicleNumber="31.97" maxVehicleNumber="35" />