<?xml version="1.0" encoding="UTF-8"?>

<!-- generated on Sun Feb 17 15:57:00 2019 by 
<configuration xmlns:xsi="http://www.w3.org/2001/XMLSchema-instance" xsi:noNamespaceSchemaLocation="http://sumo.dlr.de/xsd/Configuration.xsd">

    <input>
        <net-file value="/home/sda/Documents/sumo-sathorn-ray/models/sathorn-morning/sathorn_w_fixed_20160404.net.xml"/>
        <route-files value="/home/sda/Documents/sumo-sathorn-ray/models/sathorn-morning/Great-route/sathorn_w_20160422edit2.rou.xml"/>
        <additional-files value="/home/sda/Documents/sumo-sathorn-ray/models/sathorn-morning/sathon_wide_tls_20160418_edited.add.xml,/home/sda/Documents/sumo-sathorn-ray/detectors/sathorn_w_detectors.add.xml"/>
    </input>

    <time>
        <begin value="21600"/>
        <end value="32400"/>
        <step-length value="1"/>
    </time>

    <processing>
        <no-internal-links value="true"/>
        <ignore-junction-blocker value="-1"/>
        <time-to-teleport value="-1"/>
        <eager-insert value="true"/>
        <time-to-impatience value="300"/>
    </processing>

    <report>
        <no-warnings value="true"/>
    </report>

    <random_number>
        <random value="false"/>
        <seed value="20"/>
    </random_number>

    <gui_only>
        <gui-settings-file value="/home/sda/Documents/sumo-sathorn-ray/gui-settings/gui-settings-file-surasak.xml"/>
        <quit-on-end value="true"/>
        <start value="true"/>
        <tracker-interval value="1"/>
    </gui_only>

</configuration>
-->

<detector xmlns:xsi="http://www.w3.org/2001/XMLSchema-instance" xsi:noNamespaceSchemaLocation="http://sumo.dlr.de/xsd/det_e2_file.xsd">
   <interval begin="21600.00" end="21700.00" id="e2_L193#2_1_1" sampledSeconds="0.00" nVehEntered="0" nVehLeft="0" nVehSeen="0" meanSpeed="-1.00" meanTimeLoss="-1.00" meanOccupancy="0.00" maxOccupancy="0.00" meanMaxJamLengthInVehicles="0.00" meanMaxJamLengthInMeters="0.00" maxJamLengthInVehicles="0" maxJamLengthInMeters="0.00" jamLengthInVehiclesSum="0" jamLengthInMetersSum="0.00" meanHaltingDuration="0.00" maxHaltingDuration="0.00" haltingDurationSum="0.00" meanIntervalHaltingDuration="0.00" maxIntervalHaltingDuration="0.00" intervalHaltingDurationSum="0.00" startedHalts="0.00" meanVehicleNumber="0.00" maxVehicleNumber="0" />
   <interval begin="21700.00" end="21800.00" id="e2_L193#2_1_1" sampledSeconds="0.00" nVehEntered="0" nVehLeft="0" nVehSeen="0" meanSpeed="-1.00" meanTimeLoss="-1.00" meanOccupancy="0.00" maxOccupancy="0.00" meanMaxJamLengthInVehicles="0.00" meanMaxJamLengthInMeters="0.00" maxJamLengthInVehicles="0" maxJamLengthInMeters="0.00" jamLengthInVehiclesSum="0" jamLengthInMetersSum="0.00" meanHaltingDuration="0.00" maxHaltingDuration="0.00" haltingDurationSum="0.00" meanIntervalHaltingDuration="0.00" maxIntervalHaltingDuration="0.00" intervalHaltingDurationSum="0.00" startedHalts="0.00" meanVehicleNumber="0.00" maxVehicleNumber="0" />
   <interval begin="21800.00" end="21900.00" id="e2_L193#2_1_1" sampledSeconds="42.57" nVehEntered="6" nVehLeft="6" nVehSeen="6" meanSpeed="11.10" meanTimeLoss="0.80" meanOccupancy="1.83" maxOccupancy="9.38" meanMaxJamLengthInVehicles="0.00" meanMaxJamLengthInMeters="0.00" maxJamLengthInVehicles="0" maxJamLengthInMeters="0.00" jamLengthInVehiclesSum="0" jamLengthInMetersSum="0.00" meanHaltingDuration="0.00" maxHaltingDuration="0.00" haltingDurationSum="0.00" meanIntervalHaltingDuration="0.00" maxIntervalHaltingDuration="0.00" intervalHaltingDurationSum="0.00" startedHalts="0.00" meanVehicleNumber="0.44" maxVehicleNumber="3" />
   <interval begin="21900.00" end="22000.00" id="e2_L193#2_1_1" sampledSeconds="32.82" nVehEntered="8" nVehLeft="8" nVehSeen="8" meanSpeed="10.87" meanTimeLoss="0.47" meanOccupancy="1.39" maxOccupancy="9.38" meanMaxJamLengthInVehicles="0.00" meanMaxJamLengthInMeters="0.00" maxJamLengthInVehicles="0" maxJamLengthInMeters="0.00" jamLengthInVehiclesSum="0" jamLengthInMetersSum="0.00" meanHaltingDuration="0.00" maxHaltingDuration="0.00" haltingDurationSum="0.00" meanIntervalHaltingDuration="0.00" maxIntervalHaltingDuration="0.00" intervalHaltingDurationSum="0.00" startedHalts="0.00" meanVehicleNumber="0.35" maxVehicleNumber="2" />
   <interval begin="22000.00" end="22100.00" id="e2_L193#2_1_1" sampledSeconds="69.85" nVehEntered="12" nVehLeft="10" nVehSeen="12" meanSpeed="11.62" meanTimeLoss="0.41" meanOccupancy="2.97" maxOccupancy="12.06" meanMaxJamLengthInVehicles="0.00" meanMaxJamLengthInMeters="0.00" maxJamLengthInVehicles="0" maxJamLengthInMeters="0.00" jamLengthInVehiclesSum="0" jamLengthInMetersSum="0.00" meanHaltingDuration="0.00" maxHaltingDuration="0.00" haltingDurationSum="0.00" meanIntervalHaltingDuration="0.00" maxIntervalHaltingDuration="0.00" intervalHaltingDurationSum="0.00" startedHalts="0.00" meanVehicleNumber="0.73" maxVehicleNumber="3" />
   <interval begin="22100.00" end="22200.00" id="e2_L193#2_1_1" sampledSeconds="92.23" nVehEntered="15" nVehLeft="17" nVehSeen="17" meanSpeed="8.84" meanTimeLoss="1.56" meanOccupancy="3.96" maxOccupancy="18.75" meanMaxJamLengthInVehicles="0.00" meanMaxJamLengthInMeters="0.00" maxJamLengthInVehicles="0" maxJamLengthInMeters="0.00" jamLengthInVehiclesSum="0" jamLengthInMetersSum="0.00" meanHaltingDuration="1.00" maxHaltingDuration="1.00" haltingDurationSum="2.00" meanIntervalHaltingDuration="1.00" maxIntervalHaltingDuration="1.00" intervalHaltingDurationSum="2.00" startedHalts="2.00" meanVehicleNumber="0.95" maxVehicleNumber="4" />
   <interval begin="22200.00" end="22300.00" id="e2_L193#2_1_1" sampledSeconds="176.77" nVehEntered="18" nVehLeft="10" nVehSeen="18" meanSpeed="5.27" meanTimeLoss="5.65" meanOccupancy="8.09" maxOccupancy="37.43" meanMaxJamLengthInVehicles="0.63" meanMaxJamLengthInMeters="3.97" maxJamLengthInVehicles="5" maxJamLengthInMeters="32.90" jamLengthInVehiclesSum="63" jamLengthInMetersSum="396.97" meanHaltingDuration="10.00" maxHaltingDuration="20.00" haltingDurationSum="70.00" meanIntervalHaltingDuration="10.00" maxIntervalHaltingDuration="20.00" intervalHaltingDurationSum="70.00" startedHalts="7.00" meanVehicleNumber="1.79" maxVehicleNumber="8" />
   <interval begin="22300.00" end="22400.00" id="e2_L193#2_1_1" sampledSeconds="804.56" nVehEntered="11" nVehLeft="10" nVehSeen="19" meanSpeed="0.47" meanTimeLoss="40.74" meanOccupancy="36.82" maxOccupancy="46.87" meanMaxJamLengthInVehicles="7.18" meanMaxJamLengthInMeters="49.67" maxJamLengthInVehicles="9" maxJamLengthInMeters="66.30" jamLengthInVehiclesSum="735" jamLengthInMetersSum="5056.79" meanHaltingDuration="32.83" maxHaltingDuration="94.00" haltingDurationSum="788.00" meanIntervalHaltingDuration="30.79" maxIntervalHaltingDuration="91.00" intervalHaltingDurationSum="739.00" startedHalts="22.00" meanVehicleNumber="8.06" maxVehicleNumber="10" />
   <interval begin="22400.00" end="22500.00" id="e2_L193#2_1_1" sampledSeconds="1344.00" nVehEntered="5" nVehLeft="0" nVehSeen="14" meanSpeed="0.05" meanTimeLoss="95.60" meanOccupancy="62.97" maxOccupancy="65.62" meanMaxJamLengthInVehicles="13.27" meanMaxJamLengthInMeters="90.51" maxJamLengthInVehicles="14" maxJamLengthInMeters="95.58" jamLengthInVehiclesSum="1327" jamLengthInMetersSum="9051.45" meanHaltingDuration="114.07" maxHaltingDuration="191.00" haltingDurationSum="1597.00" meanIntervalHaltingDuration="95.14" maxIntervalHaltingDuration="100.00" intervalHaltingDurationSum="1332.00" startedHalts="5.00" meanVehicleNumber="13.44" maxVehicleNumber="14" />
   <interval begin="22500.00" end="22600.00" id="e2_L193#2_1_1" sampledSeconds="1400.00" nVehEntered="0" nVehLeft="0" nVehSeen="14" meanSpeed="0.00" meanTimeLoss="100.00" meanOccupancy="65.62" maxOccupancy="65.62" meanMaxJamLengthInVehicles="14.00" meanMaxJamLengthInMeters="95.50" maxJamLengthInVehicles="14" maxJamLengthInMeters="95.50" jamLengthInVehiclesSum="1400" jamLengthInMetersSum="9550.34" meanHaltingDuration="214.07" maxHaltingDuration="291.00" haltingDurationSum="2997.00" meanIntervalHaltingDuration="100.00" maxIntervalHaltingDuration="100.00" intervalHaltingDurationSum="1400.00" startedHalts="0.00" meanVehicleNumber="14.00" maxVehicleNumber="14" />
   <interval begin="22600.00" end="22700.00" id="e2_L193#2_1_1" sampledSeconds="1400.00" nVehEntered="0" nVehLeft="0" nVehSeen="14" meanSpeed="0.00" meanTimeLoss="100.00" meanOccupancy="65.62" maxOccupancy="65.62" meanMaxJamLengthInVehicles="14.00" meanMaxJamLengthInMeters="95.50" maxJamLengthInVehicles="14" maxJamLengthInMeters="95.50" jamLengthInVehiclesSum="1400" jamLengthInMetersSum="9550.34" meanHaltingDuration="314.07" maxHaltingDuration="391.00" haltingDurationSum="4397.00" meanIntervalHaltingDuration="100.00" maxIntervalHaltingDuration="100.00" intervalHaltingDurationSum="1400.00" startedHalts="0.00" meanVehicleNumber="14.00" maxVehicleNumber="14" />
   <interval begin="22700.00" end="22800.00" id="e2_L193#2_1_1" sampledSeconds="1400.00" nVehEntered="0" nVehLeft="0" nVehSeen="14" meanSpeed="0.00" meanTimeLoss="100.00" meanOccupancy="65.62" maxOccupancy="65.62" meanMaxJamLengthInVehicles="14.00" meanMaxJamLengthInMeters="95.50" maxJamLengthInVehicles="14" maxJamLengthInMeters="95.50" jamLengthInVehiclesSum="1400" jamLengthInMetersSum="9550.34" meanHaltingDuration="414.07" maxHaltingDuration="491.00" haltingDurationSum="5797.00" meanIntervalHaltingDuration="100.00" maxIntervalHaltingDuration="100.00" intervalHaltingDurationSum="1400.00" startedHalts="0.00" meanVehicleNumber="14.00" maxVehicleNumber="14" />
   <interval begin="22800.00" end="22900.00" id="e2_L193#2_1_1" sampledSeconds="1400.00" nVehEntered="0" nVehLeft="0" nVehSeen="14" meanSpeed="0.00" meanTimeLoss="100.00" meanOccupancy="65.62" maxOccupancy="65.62" meanMaxJamLengthInVehicles="14.00" meanMaxJamLengthInMeters="95.50" maxJamLengthInVehicles="14" maxJamLengthInMeters="95.50" jamLengthInVehiclesSum="1400" jamLengthInMetersSum="9550.34" meanHaltingDuration="514.07" maxHaltingDuration="591.00" haltingDurationSum="7197.00" meanIntervalHaltingDuration="100.00" maxIntervalHaltingDuration="100.00" intervalHaltingDurationSum="1400.00" startedHalts="0.00" meanVehicleNumber="14.00" maxVehicleNumber="14" />
   <interval begin="22900.00" end="23000.00" id="e2_L193#2_1_1" sampledSeconds="1400.00" nVehEntered="0" nVehLeft="0" nVehSeen="14" meanSpeed="0.00" meanTimeLoss="100.00" meanOccupancy="65.62" maxOccupancy="65.62" meanMaxJamLengthInVehicles="14.00" meanMaxJamLengthInMeters="95.50" maxJamLengthInVehicles="14" maxJamLengthInMeters="95.50" jamLengthInVehiclesSum="1400" jamLengthInMetersSum="9550.34" meanHaltingDuration="614.07" maxHaltingDuration="691.00" haltingDurationSum="8597.00" meanIntervalHaltingDuration="100.00" maxIntervalHaltingDuration="100.00" intervalHaltingDurationSum="1400.00" startedHalts="0.00" meanVehicleNumber="14.00" maxVehicleNumber="14" />
   <interval begin="23000.00" end="23100.00" id="e2_L193#2_1_1" sampledSeconds="1400.00" nVehEntered="0" nVehLeft="0" nVehSeen="14" meanSpeed="0.00" meanTimeLoss="100.00" meanOccupancy="65.62" maxOccupancy="65.62" meanMaxJamLengthInVehicles="14.00" meanMaxJamLengthInMeters="95.50" maxJamLengthInVehicles="14" maxJamLengthInMeters="95.50" jamLengthInVehiclesSum="1400" jamLengthInMetersSum="9550.34" meanHaltingDuration="714.07" maxHaltingDuration="791.00" haltingDurationSum="9997.00" meanIntervalHaltingDuration="100.00" maxIntervalHaltingDuration="100.00" intervalHaltingDurationSum="1400.00" startedHalts="0.00" meanVehicleNumber="14.00" maxVehicleNumber="14" />
   <interval begin="23100.00" end="23200.00" id="e2_L193#2_1_1" sampledSeconds="1400.00" nVehEntered="0" nVehLeft="0" nVehSeen="14" meanSpeed="0.00" meanTimeLoss="100.00" meanOccupancy="65.62" maxOccupancy="65.62" meanMaxJamLengthInVehicles="14.00" meanMaxJamLengthInMeters="95.50" maxJamLengthInVehicles="14" maxJamLengthInMeters="95.50" jamLengthInVehiclesSum="1400" jamLengthInMetersSum="9550.34" meanHaltingDuration="814.07" maxHaltingDuration="891.00" haltingDurationSum="11397.00" meanIntervalHaltingDuration="100.00" maxIntervalHaltingDuration="100.00" intervalHaltingDurationSum="1400.00" startedHalts="0.00" meanVehicleNumber="14.00" maxVehicleNumber="14" />
   <interval begin="23200.00" end="23300.00" id="e2_L193#2_1_1" sampledSeconds="1400.00" nVehEntered="0" nVehLeft="0" nVehSeen="14" meanSpeed="0.00" meanTimeLoss="100.00" meanOccupancy="65.62" maxOccupancy="65.62" meanMaxJamLengthInVehicles="14.00" meanMaxJamLengthInMeters="95.50" maxJamLengthInVehicles="14" maxJamLengthInMeters="95.50" jamLengthInVehiclesSum="1400" jamLengthInMetersSum="9550.34" meanHaltingDuration="914.07" maxHaltingDuration="991.00" haltingDurationSum="12797.00" meanIntervalHaltingDuration="100.00" maxIntervalHaltingDuration="100.00" intervalHaltingDurationSum="1400.00" startedHalts="0.00" meanVehicleNumber="14.00" maxVehicleNumber="14" />
   <interval begin="23300.00" end="23400.00" id="e2_L193#2_1_1" sampledSeconds="1400.00" nVehEntered="0" nVehLeft="0" nVehSeen="14" meanSpeed="0.00" meanTimeLoss="100.00" meanOccupancy="65.62" maxOccupancy="65.62" meanMaxJamLengthInVehicles="14.00" meanMaxJamLengthInMeters="95.50" maxJamLengthInVehicles="14" maxJamLengthInMeters="95.50" jamLengthInVehiclesSum="1400" jamLengthInMetersSum="9550.34" meanHaltingDuration="1014.07" maxHaltingDuration="1091.00" haltingDurationSum="14197.00" meanIntervalHaltingDuration="100.00" maxIntervalHaltingDuration="100.00" intervalHaltingDurationSum="1400.00" startedHalts="0.00" meanVehicleNumber="14.00" maxVehicleNumber="14" />
   <interval begin="23400.00" end="23500.00" id="e2_L193#2_1_1" sampledSeconds="1400.00" nVehEntered="0" nVehLeft="0" nVehSeen="14" meanSpeed="0.00" meanTimeLoss="99.99" meanOccupancy="65.62" maxOccupancy="65.62" meanMaxJamLengthInVehicles="14.00" meanMaxJamLengthInMeters="95.53" maxJamLengthInVehicles="14" maxJamLengthInMeters="96.17" jamLengthInVehiclesSum="1400" jamLengthInMetersSum="9552.83" meanHaltingDuration="1114.07" maxHaltingDuration="1191.00" haltingDurationSum="15597.00" meanIntervalHaltingDuration="100.00" maxIntervalHaltingDuration="100.00" intervalHaltingDurationSum="1400.00" startedHalts="0.00" meanVehicleNumber="14.00" maxVehicleNumber="14" />
   <interval begin="23500.00" end="23600.00" id="e2_L193#2_1_1" sampledSeconds="1239.87" nVehEntered="3" nVehLeft="4" nVehSeen="17" meanSpeed="0.31" meanTimeLoss="71.14" meanOccupancy="57.84" maxOccupancy="64.79" meanMaxJamLengthInVehicles="10.90" meanMaxJamLengthInMeters="78.49" maxJamLengthInVehicles="14" maxJamLengthInMeters="97.86" jamLengthInVehiclesSum="1093" jamLengthInMetersSum="7857.79" meanHaltingDuration="477.43" maxHaltingDuration="1197.00" haltingDurationSum="16710.00" meanIntervalHaltingDuration="31.80" maxIntervalHaltingDuration="84.00" intervalHaltingDurationSum="1113.00" startedHalts="22.00" meanVehicleNumber="12.41" maxVehicleNumber="14" />
   <interval begin="23600.00" end="23700.00" id="e2_L193#2_1_1" sampledSeconds="1300.00" nVehEntered="0" nVehLeft="0" nVehSeen="13" meanSpeed="0.00" meanTimeLoss="100.00" meanOccupancy="60.94" maxOccupancy="60.94" meanMaxJamLengthInVehicles="13.00" meanMaxJamLengthInMeters="95.50" maxJamLengthInVehicles="13" maxJamLengthInMeters="95.50" jamLengthInVehiclesSum="1300" jamLengthInMetersSum="9550.33" meanHaltingDuration="173.69" maxHaltingDuration="184.00" haltingDurationSum="2258.00" meanIntervalHaltingDuration="100.00" maxIntervalHaltingDuration="100.00" intervalHaltingDurationSum="1300.00" startedHalts="0.00" meanVehicleNumber="13.00" maxVehicleNumber="13" />
   <interval begin="23700.00" end="23800.00" id="e2_L193#2_1_1" sampledSeconds="1300.00" nVehEntered="0" nVehLeft="0" nVehSeen="13" meanSpeed="0.00" meanTimeLoss="100.00" meanOccupancy="60.94" maxOccupancy="60.94" meanMaxJamLengthInVehicles="13.00" meanMaxJamLengthInMeters="95.50" maxJamLengthInVehicles="13" maxJamLengthInMeters="95.50" jamLengthInVehiclesSum="1300" jamLengthInMetersSum="9550.32" meanHaltingDuration="273.69" maxHaltingDuration="284.00" haltingDurationSum="3558.00" meanIntervalHaltingDuration="100.00" maxIntervalHaltingDuration="100.00" intervalHaltingDurationSum="1300.00" startedHalts="0.00" meanVehicleNumber="13.00" maxVehicleNumber="13" />
   <interval begin="23800.00" end="23900.00" id="e2_L193#2_1_1" sampledSeconds="1271.78" nVehEntered="0" nVehLeft="3" nVehSeen="13" meanSpeed="0.10" meanTimeLoss="97.06" meanOccupancy="59.46" maxOccupancy="60.94" meanMaxJamLengthInVehicles="12.08" meanMaxJamLengthInMeters="89.58" maxJamLengthInVehicles="13" maxJamLengthInMeters="98.79" jamLengthInVehiclesSum="1221" jamLengthInMetersSum="9031.23" meanHaltingDuration="159.87" maxHaltingDuration="371.00" haltingDurationSum="4796.00" meanIntervalHaltingDuration="41.27" maxIntervalHaltingDuration="100.00" intervalHaltingDurationSum="1238.00" startedHalts="17.00" meanVehicleNumber="12.72" maxVehicleNumber="13" />
   <interval begin="23900.00" end="24000.00" id="e2_L193#2_1_1" sampledSeconds="1002.00" nVehEntered="1" nVehLeft="1" nVehSeen="11" meanSpeed="0.20" meanTimeLoss="89.60" meanOccupancy="46.86" maxOccupancy="48.54" meanMaxJamLengthInVehicles="8.99" meanMaxJamLengthInMeters="67.33" maxJamLengthInVehicles="10" maxJamLengthInMeters="79.83" jamLengthInVehiclesSum="921" jamLengthInMetersSum="6849.31" meanHaltingDuration="47.91" maxHaltingDuration="367.00" haltingDurationSum="1677.00" meanIntervalHaltingDuration="27.17" maxIntervalHaltingDuration="96.00" intervalHaltingDurationSum="951.00" startedHalts="32.00" meanVehicleNumber="10.02" maxVehicleNumber="11" />
   <interval begin="24000.00" end="24100.00" id="e2_L193#2_1_1" sampledSeconds="933.00" nVehEntered="1" nVehLeft="1" nVehSeen="11" meanSpeed="0.07" meanTimeLoss="84.35" meanOccupancy="43.20" maxOccupancy="46.87" meanMaxJamLengthInVehicles="9.01" meanMaxJamLengthInMeters="70.97" maxJamLengthInVehicles="10" maxJamLengthInMeters="98.46" jamLengthInVehiclesSum="916" jamLengthInMetersSum="7203.00" meanHaltingDuration="94.67" maxHaltingDuration="186.00" haltingDurationSum="1704.00" meanIntervalHaltingDuration="50.28" maxIntervalHaltingDuration="100.00" intervalHaltingDurationSum="905.00" startedHalts="9.00" meanVehicleNumber="9.33" maxVehicleNumber="10" />
   <interval begin="24100.00" end="24200.00" id="e2_L193#2_1_1" sampledSeconds="965.00" nVehEntered="0" nVehLeft="2" nVehSeen="10" meanSpeed="0.07" meanTimeLoss="95.97" meanOccupancy="41.31" maxOccupancy="42.78" meanMaxJamLengthInVehicles="9.49" meanMaxJamLengthInMeters="95.63" maxJamLengthInVehicles="10" maxJamLengthInMeters="98.62" jamLengthInVehiclesSum="960" jamLengthInMetersSum="9665.33" meanHaltingDuration="181.33" maxHaltingDuration="283.00" haltingDurationSum="1632.00" meanIntervalHaltingDuration="88.44" maxIntervalHaltingDuration="100.00" intervalHaltingDurationSum="796.00" startedHalts="1.00" meanVehicleNumber="9.65" maxVehicleNumber="10" />
   <interval begin="24200.00" end="24300.00" id="e2_L193#2_1_1" sampledSeconds="887.00" nVehEntered="1" nVehLeft="0" nVehSeen="9" meanSpeed="0.03" meanTimeLoss="98.28" meanOccupancy="41.53" maxOccupancy="42.19" meanMaxJamLengthInVehicles="8.67" meanMaxJamLengthInMeters="90.96" maxJamLengthInVehicles="9" maxJamLengthInMeters="97.21" jamLengthInVehiclesSum="871" jamLengthInMetersSum="9114.50" meanHaltingDuration="129.73" maxHaltingDuration="282.00" haltingDurationSum="1946.00" meanIntervalHaltingDuration="58.60" maxIntervalHaltingDuration="100.00" intervalHaltingDurationSum="879.00" startedHalts="8.00" meanVehicleNumber="8.87" maxVehicleNumber="9" />
   <interval begin="24300.00" end="24400.00" id="e2_L193#2_1_1" sampledSeconds="900.00" nVehEntered="0" nVehLeft="0" nVehSeen="9" meanSpeed="0.00" meanTimeLoss="100.00" meanOccupancy="42.19" maxOccupancy="42.19" meanMaxJamLengthInVehicles="9.00" meanMaxJamLengthInMeters="95.50" maxJamLengthInVehicles="9" maxJamLengthInMeters="95.50" jamLengthInVehiclesSum="900" jamLengthInMetersSum="9550.33" meanHaltingDuration="271.11" maxHaltingDuration="370.00" haltingDurationSum="2440.00" meanIntervalHaltingDuration="100.00" maxIntervalHaltingDuration="100.00" intervalHaltingDurationSum="900.00" startedHalts="0.00" meanVehicleNumber="9.00" maxVehicleNumber="9" />
   <interval begin="24400.00" end="24500.00" id="e2_L193#2_1_1" sampledSeconds="900.00" nVehEntered="0" nVehLeft="0" nVehSeen="9" meanSpeed="0.00" meanTimeLoss="100.00" meanOccupancy="42.19" maxOccupancy="42.19" meanMaxJamLengthInVehicles="9.00" meanMaxJamLengthInMeters="95.50" maxJamLengthInVehicles="9" maxJamLengthInMeters="95.50" jamLengthInVehiclesSum="900" jamLengthInMetersSum="9550.33" meanHaltingDuration="371.11" maxHaltingDuration="470.00" haltingDurationSum="3340.00" meanIntervalHaltingDuration="100.00" maxIntervalHaltingDuration="100.00" intervalHaltingDurationSum="900.00" startedHalts="0.00" meanVehicleNumber="9.00" maxVehicleNumber="9" />
   <interval begin="24500.00" end="24600.00" id="e2_L193#2_1_1" sampledSeconds="900.00" nVehEntered="0" nVehLeft="0" nVehSeen="9" meanSpeed="0.00" meanTimeLoss="100.00" meanOccupancy="42.19" maxOccupancy="42.19" meanMaxJamLengthInVehicles="9.00" meanMaxJamLengthInMeters="95.50" maxJamLengthInVehicles="9" maxJamLengthInMeters="95.50" jamLengthInVehiclesSum="900" jamLengthInMetersSum="9550.33" meanHaltingDuration="471.11" maxHaltingDuration="570.00" haltingDurationSum="4240.00" meanIntervalHaltingDuration="100.00" maxIntervalHaltingDuration="100.00" intervalHaltingDurationSum="900.00" startedHalts="0.00" meanVehicleNumber="9.00" maxVehicleNumber="9" />
   <interval begin="24600.00" end="24700.00" id="e2_L193#2_1_1" sampledSeconds="900.00" nVehEntered="0" nVehLeft="0" nVehSeen="9" meanSpeed="0.00" meanTimeLoss="100.00" meanOccupancy="42.19" maxOccupancy="42.19" meanMaxJamLengthInVehicles="9.00" meanMaxJamLengthInMeters="95.50" maxJamLengthInVehicles="9" maxJamLengthInMeters="95.50" jamLengthInVehiclesSum="900" jamLengthInMetersSum="9550.33" meanHaltingDuration="571.11" maxHaltingDuration="670.00" haltingDurationSum="5140.00" meanIntervalHaltingDuration="100.00" maxIntervalHaltingDuration="100.00" intervalHaltingDurationSum="900.00" startedHalts="0.00" meanVehicleNumber="9.00" maxVehicleNumber="9" />
   <interval begin="24700.00" end="24800.00" id="e2_L193#2_1_1" sampledSeconds="900.00" nVehEntered="0" nVehLeft="0" nVehSeen="9" meanSpeed="0.00" meanTimeLoss="100.00" meanOccupancy="42.19" maxOccupancy="42.19" meanMaxJamLengthInVehicles="9.00" meanMaxJamLengthInMeters="95.50" maxJamLengthInVehicles="9" maxJamLengthInMeters="95.50" jamLengthInVehiclesSum="900" jamLengthInMetersSum="9550.33" meanHaltingDuration="671.11" maxHaltingDuration="770.00" haltingDurationSum="6040.00" meanIntervalHaltingDuration="100.00" maxIntervalHaltingDuration="100.00" intervalHaltingDurationSum="900.00" startedHalts="0.00" meanVehicleNumber="9.00" maxVehicleNumber="9" />
   <interval begin="24800.00" end="24900.00" id="e2_L193#2_1_1" sampledSeconds="900.00" nVehEntered="0" nVehLeft="0" nVehSeen="9" meanSpeed="0.00" meanTimeLoss="99.99" meanOccupancy="42.19" maxOccupancy="42.19" meanMaxJamLengthInVehicles="9.00" meanMaxJamLengthInMeters="95.54" maxJamLengthInVehicles="9" maxJamLengthInMeters="95.66" jamLengthInVehiclesSum="900" jamLengthInMetersSum="9553.52" meanHaltingDuration="771.11" maxHaltingDuration="870.00" haltingDurationSum="6940.00" meanIntervalHaltingDuration="100.00" maxIntervalHaltingDuration="100.00" intervalHaltingDurationSum="900.00" startedHalts="0.00" meanVehicleNumber="9.00" maxVehicleNumber="9" />
   <interval begin="24900.00" end="25000.00" id="e2_L193#2_1_1" sampledSeconds="900.00" nVehEntered="0" nVehLeft="0" nVehSeen="9" meanSpeed="0.00" meanTimeLoss="100.00" meanOccupancy="42.19" maxOccupancy="42.19" meanMaxJamLengthInVehicles="9.00" meanMaxJamLengthInMeters="95.50" maxJamLengthInVehicles="9" maxJamLengthInMeters="95.50" jamLengthInVehiclesSum="900" jamLengthInMetersSum="9550.35" meanHaltingDuration="871.11" maxHaltingDuration="970.00" haltingDurationSum="7840.00" meanIntervalHaltingDuration="100.00" maxIntervalHaltingDuration="100.00" intervalHaltingDurationSum="900.00" startedHalts="0.00" meanVehicleNumber="9.00" maxVehicleNumber="9" />
   <interval begin="25000.00" end="25100.00" id="e2_L193#2_1_1" sampledSeconds="900.00" nVehEntered="0" nVehLeft="0" nVehSeen="9" meanSpeed="0.00" meanTimeLoss="100.00" meanOccupancy="42.19" maxOccupancy="42.19" meanMaxJamLengthInVehicles="9.00" meanMaxJamLengthInMeters="95.50" maxJamLengthInVehicles="9" maxJamLengthInMeters="95.50" jamLengthInVehiclesSum="900" jamLengthInMetersSum="9550.35" meanHaltingDuration="971.11" maxHaltingDuration="1070.00" haltingDurationSum="8740.00" meanIntervalHaltingDuration="100.00" maxIntervalHaltingDuration="100.00" intervalHaltingDurationSum="900.00" startedHalts="0.00" meanVehicleNumber="9.00" maxVehicleNumber="9" />
   <interval begin="25100.00" end="25200.00" id="e2_L193#2_1_1" sampledSeconds="900.00" nVehEntered="0" nVehLeft="0" nVehSeen="9" meanSpeed="0.00" meanTimeLoss="100.00" meanOccupancy="42.19" maxOccupancy="42.19" meanMaxJamLengthInVehicles="9.00" meanMaxJamLengthInMeters="95.50" maxJamLengthInVehicles="9" maxJamLengthInMeters="95.50" jamLengthInVehiclesSum="900" jamLengthInMetersSum="9550.35" meanHaltingDuration="1071.11" maxHaltingDuration="1170.00" haltingDurationSum="9640.00" meanIntervalHaltingDuration="100.00" maxIntervalHaltingDuration="100.00" intervalHaltingDurationSum="900.00" startedHalts="0.00" meanVehicleNumber="9.00" maxVehicleNumber="9" />
   <interval begin="25200.00" end="25300.00" id="e2_L193#2_1_1" sampledSeconds="900.00" nVehEntered="0" nVehLeft="0" nVehSeen="9" meanSpeed="0.00" meanTimeLoss="100.00" meanOccupancy="42.19" maxOccupancy="42.19" meanMaxJamLengthInVehicles="9.00" meanMaxJamLengthInMeters="95.50" maxJamLengthInVehicles="9" maxJamLengthInMeters="95.50" jamLengthInVehiclesSum="900" jamLengthInMetersSum="9550.35" meanHaltingDuration="1171.11" maxHaltingDuration="1270.00" haltingDurationSum="10540.00" meanIntervalHaltingDuration="100.00" maxIntervalHaltingDuration="100.00" intervalHaltingDurationSum="900.00" startedHalts="0.00" meanVehicleNumber="9.00" maxVehicleNumber="9" />
   <interval begin="25300.00" end="25400.00" id="e2_L193#2_1_1" sampledSeconds="900.00" nVehEntered="0" nVehLeft="0" nVehSeen="9" meanSpeed="0.00" meanTimeLoss="100.00" meanOccupancy="42.19" maxOccupancy="42.19" meanMaxJamLengthInVehicles="9.00" meanMaxJamLengthInMeters="95.50" maxJamLengthInVehicles="9" maxJamLengthInMeters="95.50" jamLengthInVehiclesSum="900" jamLengthInMetersSum="9550.35" meanHaltingDuration="1271.11" maxHaltingDuration="1370.00" haltingDurationSum="11440.00" meanIntervalHaltingDuration="100.00" maxIntervalHaltingDuration="100.00" intervalHaltingDurationSum="900.00" startedHalts="0.00" meanVehicleNumber="9.00" maxVehicleNumber="9" />
   <interval begin="25400.00" end="25500.00" id="e2_L193#2_1_1" sampledSeconds="896.81" nVehEntered="0" nVehLeft="1" nVehSeen="9" meanSpeed="0.03" meanTimeLoss="99.44" meanOccupancy="41.84" maxOccupancy="42.19" meanMaxJamLengthInVehicles="8.92" meanMaxJamLengthInMeters="95.24" maxJamLengthInVehicles="9" maxJamLengthInMeters="100.22" jamLengthInVehiclesSum="893" jamLengthInMetersSum="9525.14" meanHaltingDuration="1233.00" maxHaltingDuration="1467.00" haltingDurationSum="12330.00" meanIntervalHaltingDuration="89.00" maxIntervalHaltingDuration="100.00" intervalHaltingDurationSum="890.00" startedHalts="2.00" meanVehicleNumber="8.97" maxVehicleNumber="9" />
   <interval begin="25500.00" end="25600.00" id="e2_L193#2_1_1" sampledSeconds="712.36" nVehEntered="6" nVehLeft="6" nVehSeen="14" meanSpeed="0.64" meanTimeLoss="48.27" meanOccupancy="33.10" maxOccupancy="37.50" meanMaxJamLengthInVehicles="4.96" meanMaxJamLengthInMeters="50.07" maxJamLengthInVehicles="8" maxJamLengthInMeters="95.72" jamLengthInVehiclesSum="568" jamLengthInMetersSum="5449.71" meanHaltingDuration="188.83" maxHaltingDuration="1481.00" haltingDurationSum="10008.00" meanIntervalHaltingDuration="11.43" maxIntervalHaltingDuration="32.00" intervalHaltingDurationSum="606.00" startedHalts="48.00" meanVehicleNumber="7.13" maxVehicleNumber="8" />
   <interval begin="25600.00" end="25700.00" id="e2_L193#2_1_1" sampledSeconds="915.52" nVehEntered="3" nVehLeft="2" nVehSeen="11" meanSpeed="0.32" meanTimeLoss="81.12" meanOccupancy="42.65" maxOccupancy="46.87" meanMaxJamLengthInVehicles="8.32" meanMaxJamLengthInMeters="75.81" maxJamLengthInVehicles="10" maxJamLengthInMeters="95.52" jamLengthInVehiclesSum="861" jamLengthInMetersSum="7818.75" meanHaltingDuration="35.18" maxHaltingDuration="98.00" haltingDurationSum="985.00" meanIntervalHaltingDuration="31.50" maxIntervalHaltingDuration="98.00" intervalHaltingDurationSum="882.00" startedHalts="23.00" meanVehicleNumber="9.17" maxVehicleNumber="10" />
   <interval begin="25700.00" end="25800.00" id="e2_L193#2_1_1" sampledSeconds="1017.77" nVehEntered="4" nVehLeft="2" nVehSeen="13" meanSpeed="0.28" meanTimeLoss="76.50" meanOccupancy="47.54" maxOccupancy="51.56" meanMaxJamLengthInVehicles="8.92" meanMaxJamLengthInMeters="76.93" maxJamLengthInVehicles="11" maxJamLengthInMeters="95.70" jamLengthInVehiclesSum="906" jamLengthInMetersSum="7775.47" meanHaltingDuration="36.81" maxHaltingDuration="101.00" haltingDurationSum="1141.00" meanIntervalHaltingDuration="30.06" maxIntervalHaltingDuration="90.00" intervalHaltingDurationSum="932.00" startedHalts="26.00" meanVehicleNumber="10.18" maxVehicleNumber="11" />
   <interval begin="25800.00" end="25900.00" id="e2_L193#2_1_1" sampledSeconds="1100.00" nVehEntered="0" nVehLeft="0" nVehSeen="11" meanSpeed="0.00" meanTimeLoss="99.99" meanOccupancy="51.56" maxOccupancy="51.56" meanMaxJamLengthInVehicles="11.00" meanMaxJamLengthInMeters="95.61" maxJamLengthInVehicles="11" maxJamLengthInMeters="95.88" jamLengthInVehiclesSum="1100" jamLengthInMetersSum="9561.47" meanHaltingDuration="178.91" maxHaltingDuration="190.00" haltingDurationSum="1968.00" meanIntervalHaltingDuration="100.00" maxIntervalHaltingDuration="100.00" intervalHaltingDurationSum="1100.00" startedHalts="0.00" meanVehicleNumber="11.00" maxVehicleNumber="11" />