<?xml version="1.0" encoding="UTF-8"?>

<!-- generated on Sun Feb 17 15:57:00 2019 by 
<configuration xmlns:xsi="http://www.w3.org/2001/XMLSchema-instance" xsi:noNamespaceSchemaLocation="http://sumo.dlr.de/xsd/Configuration.xsd">

    <input>
        <net-file value="/home/sda/Documents/sumo-sathorn-ray/models/sathorn-morning/sathorn_w_fixed_20160404.net.xml"/>
        <route-files value="/home/sda/Documents/sumo-sathorn-ray/models/sathorn-morning/Great-route/sathorn_w_20160422edit2.rou.xml"/>
        <additional-files value="/home/sda/Documents/sumo-sathorn-ray/models/sathorn-morning/sathon_wide_tls_20160418_edited.add.xml,/home/sda/Documents/sumo-sathorn-ray/detectors/sathorn_w_detectors.add.xml"/>
    </input>

    <time>
        <begin value="21600"/>
        <end value="32400"/>
        <step-length value="1"/>
    </time>

    <processing>
        <no-internal-links value="true"/>
        <ignore-junction-blocker value="-1"/>
        <time-to-teleport value="-1"/>
        <eager-insert value="true"/>
        <time-to-impatience value="300"/>
    </processing>

    <report>
        <no-warnings value="true"/>
    </report>

    <random_number>
        <random value="false"/>
        <seed value="20"/>
    </random_number>

    <gui_only>
        <gui-settings-file value="/home/sda/Documents/sumo-sathorn-ray/gui-settings/gui-settings-file-surasak.xml"/>
        <quit-on-end value="true"/>
        <start value="true"/>
        <tracker-interval value="1"/>
    </gui_only>

</configuration>
-->

<detector xmlns:xsi="http://www.w3.org/2001/XMLSchema-instance" xsi:noNamespaceSchemaLocation="http://sumo.dlr.de/xsd/det_e2_file.xsd">
   <interval begin="21600.00" end="21700.00" id="e2_L64_0_3" sampledSeconds="0.00" nVehEntered="0" nVehLeft="0" nVehSeen="0" meanSpeed="-1.00" meanTimeLoss="-1.00" meanOccupancy="0.00" maxOccupancy="0.00" meanMaxJamLengthInVehicles="0.00" meanMaxJamLengthInMeters="0.00" maxJamLengthInVehicles="0" maxJamLengthInMeters="0.00" jamLengthInVehiclesSum="0" jamLengthInMetersSum="0.00" meanHaltingDuration="0.00" maxHaltingDuration="0.00" haltingDurationSum="0.00" meanIntervalHaltingDuration="0.00" maxIntervalHaltingDuration="0.00" intervalHaltingDurationSum="0.00" startedHalts="0.00" meanVehicleNumber="0.00" maxVehicleNumber="0" />
   <interval begin="21700.00" end="21800.00" id="e2_L64_0_3" sampledSeconds="0.00" nVehEntered="0" nVehLeft="0" nVehSeen="0" meanSpeed="-1.00" meanTimeLoss="-1.00" meanOccupancy="0.00" maxOccupancy="0.00" meanMaxJamLengthInVehicles="0.00" meanMaxJamLengthInMeters="0.00" maxJamLengthInVehicles="0" maxJamLengthInMeters="0.00" jamLengthInVehiclesSum="0" jamLengthInMetersSum="0.00" meanHaltingDuration="0.00" maxHaltingDuration="0.00" haltingDurationSum="0.00" meanIntervalHaltingDuration="0.00" maxIntervalHaltingDuration="0.00" intervalHaltingDurationSum="0.00" startedHalts="0.00" meanVehicleNumber="0.00" maxVehicleNumber="0" />
   <interval begin="21800.00" end="21900.00" id="e2_L64_0_3" sampledSeconds="4.00" nVehEntered="1" nVehLeft="1" nVehSeen="1" meanSpeed="11.39" meanTimeLoss="0.35" meanOccupancy="0.07" maxOccupancy="1.67" meanMaxJamLengthInVehicles="0.00" meanMaxJamLengthInMeters="0.00" maxJamLengthInVehicles="0" maxJamLengthInMeters="0.00" jamLengthInVehiclesSum="0" jamLengthInMetersSum="0.00" meanHaltingDuration="0.00" maxHaltingDuration="0.00" haltingDurationSum="0.00" meanIntervalHaltingDuration="0.00" maxIntervalHaltingDuration="0.00" intervalHaltingDurationSum="0.00" startedHalts="0.00" meanVehicleNumber="0.04" maxVehicleNumber="1" />
   <interval begin="21900.00" end="22000.00" id="e2_L64_0_3" sampledSeconds="0.00" nVehEntered="0" nVehLeft="0" nVehSeen="0" meanSpeed="-1.00" meanTimeLoss="-1.00" meanOccupancy="0.00" maxOccupancy="0.00" meanMaxJamLengthInVehicles="0.00" meanMaxJamLengthInMeters="0.00" maxJamLengthInVehicles="0" maxJamLengthInMeters="0.00" jamLengthInVehiclesSum="0" jamLengthInMetersSum="0.00" meanHaltingDuration="0.00" maxHaltingDuration="0.00" haltingDurationSum="0.00" meanIntervalHaltingDuration="0.00" maxIntervalHaltingDuration="0.00" intervalHaltingDurationSum="0.00" startedHalts="0.00" meanVehicleNumber="0.00" maxVehicleNumber="0" />
   <interval begin="22000.00" end="22100.00" id="e2_L64_0_3" sampledSeconds="0.00" nVehEntered="0" nVehLeft="0" nVehSeen="0" meanSpeed="-1.00" meanTimeLoss="-1.00" meanOccupancy="0.00" maxOccupancy="0.00" meanMaxJamLengthInVehicles="0.00" meanMaxJamLengthInMeters="0.00" maxJamLengthInVehicles="0" maxJamLengthInMeters="0.00" jamLengthInVehiclesSum="0" jamLengthInMetersSum="0.00" meanHaltingDuration="0.00" maxHaltingDuration="0.00" haltingDurationSum="0.00" meanIntervalHaltingDuration="0.00" maxIntervalHaltingDuration="0.00" intervalHaltingDurationSum="0.00" startedHalts="0.00" meanVehicleNumber="0.00" maxVehicleNumber="0" />
   <interval begin="22100.00" end="22200.00" id="e2_L64_0_3" sampledSeconds="0.00" nVehEntered="0" nVehLeft="0" nVehSeen="0" meanSpeed="-1.00" meanTimeLoss="-1.00" meanOccupancy="0.00" maxOccupancy="0.00" meanMaxJamLengthInVehicles="0.00" meanMaxJamLengthInMeters="0.00" maxJamLengthInVehicles="0" maxJamLengthInMeters="0.00" jamLengthInVehiclesSum="0" jamLengthInMetersSum="0.00" meanHaltingDuration="0.00" maxHaltingDuration="0.00" haltingDurationSum="0.00" meanIntervalHaltingDuration="0.00" maxIntervalHaltingDuration="0.00" intervalHaltingDurationSum="0.00" startedHalts="0.00" meanVehicleNumber="0.00" maxVehicleNumber="0" />
   <interval begin="22200.00" end="22300.00" id="e2_L64_0_3" sampledSeconds="0.00" nVehEntered="0" nVehLeft="0" nVehSeen="0" meanSpeed="-1.00" meanTimeLoss="-1.00" meanOccupancy="0.00" maxOccupancy="0.00" meanMaxJamLengthInVehicles="0.00" meanMaxJamLengthInMeters="0.00" maxJamLengthInVehicles="0" maxJamLengthInMeters="0.00" jamLengthInVehiclesSum="0" jamLengthInMetersSum="0.00" meanHaltingDuration="0.00" maxHaltingDuration="0.00" haltingDurationSum="0.00" meanIntervalHaltingDuration="0.00" maxIntervalHaltingDuration="0.00" intervalHaltingDurationSum="0.00" startedHalts="0.00" meanVehicleNumber="0.00" maxVehicleNumber="0" />
   <interval begin="22300.00" end="22400.00" id="e2_L64_0_3" sampledSeconds="319.00" nVehEntered="4" nVehLeft="0" nVehSeen="4" meanSpeed="0.67" meanTimeLoss="75.42" meanOccupancy="5.31" maxOccupancy="6.66" meanMaxJamLengthInVehicles="2.76" meanMaxJamLengthInMeters="17.68" maxJamLengthInVehicles="4" maxJamLengthInMeters="26.81" jamLengthInVehiclesSum="276" jamLengthInMetersSum="1768.47" meanHaltingDuration="70.00" maxHaltingDuration="73.00" haltingDurationSum="280.00" meanIntervalHaltingDuration="70.00" maxIntervalHaltingDuration="73.00" intervalHaltingDurationSum="280.00" startedHalts="4.00" meanVehicleNumber="3.19" maxVehicleNumber="4" />
   <interval begin="22400.00" end="22500.00" id="e2_L64_0_3" sampledSeconds="602.00" nVehEntered="10" nVehLeft="0" nVehSeen="14" meanSpeed="1.06" meanTimeLoss="39.34" meanOccupancy="10.03" maxOccupancy="23.32" meanMaxJamLengthInVehicles="4.08" meanMaxJamLengthInMeters="39.38" maxJamLengthInVehicles="14" maxJamLengthInMeters="145.49" jamLengthInVehiclesSum="420" jamLengthInMetersSum="3994.50" meanHaltingDuration="25.86" maxHaltingDuration="118.00" haltingDurationSum="724.00" meanIntervalHaltingDuration="15.86" maxIntervalHaltingDuration="51.00" intervalHaltingDurationSum="444.00" startedHalts="24.00" meanVehicleNumber="6.02" maxVehicleNumber="14" />
   <interval begin="22500.00" end="22600.00" id="e2_L64_0_3" sampledSeconds="1401.23" nVehEntered="1" nVehLeft="1" nVehSeen="15" meanSpeed="0.11" meanTimeLoss="92.62" meanOccupancy="23.32" maxOccupancy="23.98" meanMaxJamLengthInVehicles="13.67" meanMaxJamLengthInMeters="138.03" maxJamLengthInVehicles="14" maxJamLengthInMeters="145.90" jamLengthInVehiclesSum="1368" jamLengthInMetersSum="13807.63" meanHaltingDuration="107.47" maxHaltingDuration="128.00" haltingDurationSum="1612.00" meanIntervalHaltingDuration="91.27" maxIntervalHaltingDuration="100.00" intervalHaltingDurationSum="1369.00" startedHalts="1.00" meanVehicleNumber="14.02" maxVehicleNumber="15" />
   <interval begin="22600.00" end="22700.00" id="e2_L64_0_3" sampledSeconds="2240.00" nVehEntered="13" nVehLeft="0" nVehSeen="27" meanSpeed="0.64" meanTimeLoss="78.73" meanOccupancy="37.31" maxOccupancy="44.97" meanMaxJamLengthInVehicles="18.15" meanMaxJamLengthInMeters="166.61" maxJamLengthInVehicles="27" maxJamLengthInMeters="229.97" jamLengthInVehiclesSum="1837" jamLengthInMetersSum="16776.79" meanHaltingDuration="46.22" maxHaltingDuration="131.00" haltingDurationSum="3004.00" meanIntervalHaltingDuration="29.11" maxIntervalHaltingDuration="97.00" intervalHaltingDurationSum="1892.00" startedHalts="55.00" meanVehicleNumber="22.40" maxVehicleNumber="27" />
   <interval begin="22700.00" end="22800.00" id="e2_L64_0_3" sampledSeconds="2607.15" nVehEntered="5" nVehLeft="5" nVehSeen="32" meanSpeed="0.68" meanTimeLoss="77.03" meanOccupancy="43.38" maxOccupancy="44.97" meanMaxJamLengthInVehicles="19.89" meanMaxJamLengthInMeters="153.97" maxJamLengthInVehicles="27" maxJamLengthInMeters="230.95" jamLengthInVehiclesSum="2075" jamLengthInMetersSum="15922.87" meanHaltingDuration="51.39" maxHaltingDuration="128.00" haltingDurationSum="3906.00" meanIntervalHaltingDuration="27.95" maxIntervalHaltingDuration="76.00" intervalHaltingDurationSum="2124.00" startedHalts="49.00" meanVehicleNumber="26.09" maxVehicleNumber="28" />
   <interval begin="22800.00" end="22900.00" id="e2_L64_0_3" sampledSeconds="3341.04" nVehEntered="10" nVehLeft="7" nVehSeen="37" meanSpeed="0.11" meanTimeLoss="89.49" meanOccupancy="55.58" maxOccupancy="58.30" meanMaxJamLengthInVehicles="32.36" meanMaxJamLengthInMeters="242.55" maxJamLengthInVehicles="35" maxJamLengthInMeters="257.88" jamLengthInVehiclesSum="3245" jamLengthInMetersSum="24298.84" meanHaltingDuration="98.87" maxHaltingDuration="130.00" haltingDurationSum="3757.00" meanIntervalHaltingDuration="85.68" maxIntervalHaltingDuration="100.00" intervalHaltingDurationSum="3256.00" startedHalts="14.00" meanVehicleNumber="33.42" maxVehicleNumber="35" />
   <interval begin="22900.00" end="23000.00" id="e2_L64_0_3" sampledSeconds="3198.91" nVehEntered="11" nVehLeft="3" nVehSeen="41" meanSpeed="0.72" meanTimeLoss="73.50" meanOccupancy="53.25" maxOccupancy="63.29" meanMaxJamLengthInVehicles="24.00" meanMaxJamLengthInMeters="161.18" maxJamLengthInVehicles="38" maxJamLengthInMeters="258.54" jamLengthInVehiclesSum="2479" jamLengthInMetersSum="16529.51" meanHaltingDuration="50.52" maxHaltingDuration="128.00" haltingDurationSum="5557.00" meanIntervalHaltingDuration="23.28" maxIntervalHaltingDuration="83.00" intervalHaltingDurationSum="2561.00" startedHalts="82.00" meanVehicleNumber="32.00" maxVehicleNumber="38" />
   <interval begin="23000.00" end="23100.00" id="e2_L64_0_3" sampledSeconds="3493.17" nVehEntered="4" nVehLeft="11" nVehSeen="42" meanSpeed="0.60" meanTimeLoss="79.19" meanOccupancy="58.03" maxOccupancy="63.29" meanMaxJamLengthInVehicles="28.20" meanMaxJamLengthInMeters="187.07" maxJamLengthInVehicles="38" maxJamLengthInMeters="257.14" jamLengthInVehiclesSum="2942" jamLengthInMetersSum="19295.09" meanHaltingDuration="66.73" maxHaltingDuration="131.00" haltingDurationSum="5005.00" meanIntervalHaltingDuration="39.72" maxIntervalHaltingDuration="98.00" intervalHaltingDurationSum="2979.00" startedHalts="37.00" meanVehicleNumber="34.97" maxVehicleNumber="38" />
   <interval begin="23100.00" end="23200.00" id="e2_L64_0_3" sampledSeconds="4060.00" nVehEntered="13" nVehLeft="1" nVehSeen="44" meanSpeed="0.20" meanTimeLoss="90.76" meanOccupancy="67.62" maxOccupancy="71.62" meanMaxJamLengthInVehicles="37.98" meanMaxJamLengthInMeters="234.52" maxJamLengthInVehicles="43" maxJamLengthInMeters="265.16" jamLengthInVehiclesSum="3808" jamLengthInMetersSum="23496.98" meanHaltingDuration="77.70" maxHaltingDuration="127.00" haltingDurationSum="4118.00" meanIntervalHaltingDuration="72.47" maxIntervalHaltingDuration="100.00" intervalHaltingDurationSum="3841.00" startedHalts="34.00" meanVehicleNumber="40.60" maxVehicleNumber="43" />
   <interval begin="23200.00" end="23300.00" id="e2_L64_0_3" sampledSeconds="3448.79" nVehEntered="8" nVehLeft="13" nVehSeen="51" meanSpeed="0.88" meanTimeLoss="62.85" meanOccupancy="57.29" maxOccupancy="71.62" meanMaxJamLengthInVehicles="25.06" meanMaxJamLengthInMeters="161.50" maxJamLengthInVehicles="43" maxJamLengthInMeters="264.19" jamLengthInVehiclesSum="2653" jamLengthInMetersSum="16931.22" meanHaltingDuration="58.38" maxHaltingDuration="131.00" haltingDurationSum="6830.00" meanIntervalHaltingDuration="23.29" maxIntervalHaltingDuration="63.00" intervalHaltingDurationSum="2725.00" startedHalts="75.00" meanVehicleNumber="34.55" maxVehicleNumber="43" />
   <interval begin="23300.00" end="23400.00" id="e2_L64_0_3" sampledSeconds="3629.86" nVehEntered="2" nVehLeft="12" nVehSeen="40" meanSpeed="0.33" meanTimeLoss="88.38" meanOccupancy="60.30" maxOccupancy="64.96" meanMaxJamLengthInVehicles="33.09" meanMaxJamLengthInMeters="229.96" maxJamLengthInVehicles="39" maxJamLengthInMeters="270.60" jamLengthInVehiclesSum="3331" jamLengthInMetersSum="23105.05" meanHaltingDuration="80.25" maxHaltingDuration="128.00" haltingDurationSum="4735.00" meanIntervalHaltingDuration="56.81" maxIntervalHaltingDuration="100.00" intervalHaltingDurationSum="3352.00" startedHalts="21.00" meanVehicleNumber="36.35" maxVehicleNumber="39" />
   <interval begin="23400.00" end="23500.00" id="e2_L64_0_3" sampledSeconds="3260.00" nVehEntered="11" nVehLeft="1" nVehSeen="39" meanSpeed="0.44" meanTimeLoss="80.61" meanOccupancy="54.30" maxOccupancy="63.29" meanMaxJamLengthInVehicles="27.30" meanMaxJamLengthInMeters="195.86" maxJamLengthInVehicles="38" maxJamLengthInMeters="276.38" jamLengthInVehiclesSum="2828" jamLengthInMetersSum="20127.28" meanHaltingDuration="57.54" maxHaltingDuration="126.00" haltingDurationSum="3913.00" meanIntervalHaltingDuration="42.16" maxIntervalHaltingDuration="100.00" intervalHaltingDurationSum="2867.00" startedHalts="53.00" meanVehicleNumber="32.60" maxVehicleNumber="38" />
   <interval begin="23500.00" end="23600.00" id="e2_L64_0_3" sampledSeconds="2892.35" nVehEntered="8" nVehLeft="22" nVehSeen="46" meanSpeed="1.17" meanTimeLoss="56.97" meanOccupancy="47.92" maxOccupancy="63.29" meanMaxJamLengthInVehicles="20.61" meanMaxJamLengthInMeters="152.18" maxJamLengthInVehicles="38" maxJamLengthInMeters="276.90" jamLengthInVehiclesSum="2078" jamLengthInMetersSum="15304.71" meanHaltingDuration="59.84" maxHaltingDuration="132.00" haltingDurationSum="4907.00" meanIntervalHaltingDuration="25.88" maxIntervalHaltingDuration="80.00" intervalHaltingDurationSum="2122.00" startedHalts="45.00" meanVehicleNumber="29.00" maxVehicleNumber="38" />
   <interval begin="23600.00" end="23700.00" id="e2_L64_0_3" sampledSeconds="3158.00" nVehEntered="10" nVehLeft="1" nVehSeen="34" meanSpeed="0.27" meanTimeLoss="90.88" meanOccupancy="52.60" maxOccupancy="54.96" meanMaxJamLengthInVehicles="29.03" meanMaxJamLengthInMeters="224.34" maxJamLengthInVehicles="33" maxJamLengthInMeters="252.31" jamLengthInVehiclesSum="2924" jamLengthInMetersSum="22512.70" meanHaltingDuration="69.20" maxHaltingDuration="124.00" haltingDurationSum="3114.00" meanIntervalHaltingDuration="65.75" maxIntervalHaltingDuration="100.00" intervalHaltingDurationSum="2959.00" startedHalts="35.00" meanVehicleNumber="31.58" maxVehicleNumber="33" />
   <interval begin="23700.00" end="23800.00" id="e2_L64_0_3" sampledSeconds="2651.07" nVehEntered="4" nVehLeft="11" nVehSeen="37" meanSpeed="1.27" meanTimeLoss="64.33" meanOccupancy="44.04" maxOccupancy="54.96" meanMaxJamLengthInVehicles="20.27" meanMaxJamLengthInMeters="141.19" maxJamLengthInVehicles="33" maxJamLengthInMeters="251.62" jamLengthInVehiclesSum="2058" jamLengthInMetersSum="14286.76" meanHaltingDuration="80.94" maxHaltingDuration="145.00" haltingDurationSum="5180.00" meanIntervalHaltingDuration="32.64" maxIntervalHaltingDuration="71.00" intervalHaltingDurationSum="2089.00" startedHalts="31.00" meanVehicleNumber="26.55" maxVehicleNumber="33" />
   <interval begin="23800.00" end="23900.00" id="e2_L64_0_3" sampledSeconds="2506.00" nVehEntered="0" nVehLeft="1" nVehSeen="26" meanSpeed="0.05" meanTimeLoss="95.95" meanOccupancy="41.74" maxOccupancy="43.31" meanMaxJamLengthInVehicles="24.79" meanMaxJamLengthInMeters="189.52" maxJamLengthInVehicles="25" maxJamLengthInMeters="194.74" jamLengthInVehiclesSum="2480" jamLengthInMetersSum="18956.43" meanHaltingDuration="119.12" maxHaltingDuration="139.00" haltingDurationSum="2978.00" meanIntervalHaltingDuration="99.32" maxIntervalHaltingDuration="100.00" intervalHaltingDurationSum="2483.00" startedHalts="3.00" meanVehicleNumber="25.06" maxVehicleNumber="26" />
   <interval begin="23900.00" end="24000.00" id="e2_L64_0_3" sampledSeconds="2433.34" nVehEntered="0" nVehLeft="6" nVehSeen="25" meanSpeed="0.14" meanTimeLoss="96.22" meanOccupancy="40.44" maxOccupancy="41.64" meanMaxJamLengthInVehicles="23.43" meanMaxJamLengthInMeters="182.74" maxJamLengthInVehicles="25" maxJamLengthInMeters="193.38" jamLengthInVehiclesSum="2345" jamLengthInMetersSum="18283.27" meanHaltingDuration="171.90" maxHaltingDuration="221.00" haltingDurationSum="5329.00" meanIntervalHaltingDuration="75.84" maxIntervalHaltingDuration="100.00" intervalHaltingDurationSum="2351.00" startedHalts="6.00" meanVehicleNumber="24.36" maxVehicleNumber="25" />
   <interval begin="24000.00" end="24100.00" id="e2_L64_0_3" sampledSeconds="680.69" nVehEntered="0" nVehLeft="15" nVehSeen="19" meanSpeed="2.34" meanTimeLoss="29.03" meanOccupancy="11.15" maxOccupancy="31.19" meanMaxJamLengthInVehicles="2.86" meanMaxJamLengthInMeters="42.43" maxJamLengthInVehicles="8" maxJamLengthInMeters="90.85" jamLengthInVehiclesSum="291" jamLengthInMetersSum="4264.72" meanHaltingDuration="76.61" maxHaltingDuration="216.00" haltingDurationSum="2375.00" meanIntervalHaltingDuration="10.03" maxIntervalHaltingDuration="65.00" intervalHaltingDurationSum="311.00" startedHalts="22.00" meanVehicleNumber="6.87" maxVehicleNumber="19" />
   <interval begin="24100.00" end="24200.00" id="e2_L64_0_3" sampledSeconds="400.00" nVehEntered="0" nVehLeft="0" nVehSeen="4" meanSpeed="0.00" meanTimeLoss="100.00" meanOccupancy="6.66" maxOccupancy="6.66" meanMaxJamLengthInVehicles="4.00" meanMaxJamLengthInMeters="67.54" maxJamLengthInVehicles="4" maxJamLengthInMeters="67.54" jamLengthInVehiclesSum="400" jamLengthInMetersSum="6753.93" meanHaltingDuration="154.50" maxHaltingDuration="165.00" haltingDurationSum="618.00" meanIntervalHaltingDuration="100.00" maxIntervalHaltingDuration="100.00" intervalHaltingDurationSum="400.00" startedHalts="0.00" meanVehicleNumber="4.00" maxVehicleNumber="4" />
   <interval begin="24200.00" end="24300.00" id="e2_L64_0_3" sampledSeconds="400.00" nVehEntered="0" nVehLeft="0" nVehSeen="4" meanSpeed="0.00" meanTimeLoss="100.00" meanOccupancy="6.66" maxOccupancy="6.66" meanMaxJamLengthInVehicles="4.00" meanMaxJamLengthInMeters="67.54" maxJamLengthInVehicles="4" maxJamLengthInMeters="67.54" jamLengthInVehiclesSum="400" jamLengthInMetersSum="6753.93" meanHaltingDuration="254.50" maxHaltingDuration="265.00" haltingDurationSum="1018.00" meanIntervalHaltingDuration="100.00" maxIntervalHaltingDuration="100.00" intervalHaltingDurationSum="400.00" startedHalts="0.00" meanVehicleNumber="4.00" maxVehicleNumber="4" />
   <interval begin="24300.00" end="24400.00" id="e2_L64_0_3" sampledSeconds="349.63" nVehEntered="0" nVehLeft="4" nVehSeen="4" meanSpeed="0.60" meanTimeLoss="83.15" meanOccupancy="5.78" maxOccupancy="6.66" meanMaxJamLengthInVehicles="3.02" meanMaxJamLengthInMeters="47.96" maxJamLengthInVehicles="4" maxJamLengthInMeters="68.83" jamLengthInVehiclesSum="302" jamLengthInMetersSum="4795.91" meanHaltingDuration="220.33" maxHaltingDuration="332.00" haltingDurationSum="1322.00" meanIntervalHaltingDuration="50.67" maxIntervalHaltingDuration="81.00" intervalHaltingDurationSum="304.00" startedHalts="2.00" meanVehicleNumber="3.51" maxVehicleNumber="4" />
   <interval begin="24400.00" end="24500.00" id="e2_L64_0_3" sampledSeconds="1000.00" nVehEntered="19" nVehLeft="0" nVehSeen="19" meanSpeed="1.24" meanTimeLoss="47.42" meanOccupancy="16.66" maxOccupancy="31.65" meanMaxJamLengthInVehicles="7.08" meanMaxJamLengthInMeters="36.87" maxJamLengthInVehicles="19" maxJamLengthInMeters="97.45" jamLengthInVehiclesSum="718" jamLengthInMetersSum="3733.17" meanHaltingDuration="32.22" maxHaltingDuration="50.00" haltingDurationSum="741.00" meanIntervalHaltingDuration="32.22" maxIntervalHaltingDuration="50.00" intervalHaltingDurationSum="741.00" startedHalts="23.00" meanVehicleNumber="10.00" maxVehicleNumber="19" />
   <interval begin="24500.00" end="24600.00" id="e2_L64_0_3" sampledSeconds="1900.00" nVehEntered="0" nVehLeft="0" nVehSeen="19" meanSpeed="0.00" meanTimeLoss="100.00" meanOccupancy="31.65" maxOccupancy="31.65" meanMaxJamLengthInVehicles="19.00" meanMaxJamLengthInMeters="95.50" maxJamLengthInVehicles="19" maxJamLengthInMeters="95.52" jamLengthInVehiclesSum="1900" jamLengthInMetersSum="9550.37" meanHaltingDuration="138.63" maxHaltingDuration="150.00" haltingDurationSum="2634.00" meanIntervalHaltingDuration="100.00" maxIntervalHaltingDuration="100.00" intervalHaltingDurationSum="1900.00" startedHalts="0.00" meanVehicleNumber="19.00" maxVehicleNumber="19" />
   <interval begin="24600.00" end="24700.00" id="e2_L64_0_3" sampledSeconds="2359.00" nVehEntered="9" nVehLeft="0" nVehSeen="28" meanSpeed="1.13" meanTimeLoss="76.59" meanOccupancy="39.29" maxOccupancy="46.64" meanMaxJamLengthInVehicles="17.14" meanMaxJamLengthInMeters="103.41" maxJamLengthInVehicles="28" maxJamLengthInMeters="182.75" jamLengthInVehiclesSum="1744" jamLengthInMetersSum="10489.56" meanHaltingDuration="68.06" maxHaltingDuration="159.00" haltingDurationSum="4424.00" meanIntervalHaltingDuration="27.54" maxIntervalHaltingDuration="72.00" intervalHaltingDurationSum="1790.00" startedHalts="46.00" meanVehicleNumber="23.59" maxVehicleNumber="28" />
   <interval begin="24700.00" end="24800.00" id="e2_L64_0_3" sampledSeconds="2800.00" nVehEntered="0" nVehLeft="0" nVehSeen="28" meanSpeed="0.00" meanTimeLoss="100.00" meanOccupancy="46.64" maxOccupancy="46.64" meanMaxJamLengthInVehicles="28.00" meanMaxJamLengthInMeters="179.40" maxJamLengthInVehicles="28" maxJamLengthInMeters="179.40" jamLengthInVehiclesSum="2800" jamLengthInMetersSum="17939.61" meanHaltingDuration="151.96" maxHaltingDuration="172.00" haltingDurationSum="4255.00" meanIntervalHaltingDuration="100.00" maxIntervalHaltingDuration="100.00" intervalHaltingDurationSum="2800.00" startedHalts="0.00" meanVehicleNumber="28.00" maxVehicleNumber="28" />
   <interval begin="24800.00" end="24900.00" id="e2_L64_0_3" sampledSeconds="2338.05" nVehEntered="8" nVehLeft="9" nVehSeen="36" meanSpeed="1.12" meanTimeLoss="59.13" meanOccupancy="38.85" maxOccupancy="46.64" meanMaxJamLengthInVehicles="17.56" meanMaxJamLengthInMeters="108.80" maxJamLengthInVehicles="28" maxJamLengthInMeters="199.79" jamLengthInVehiclesSum="1780" jamLengthInMetersSum="10988.27" meanHaltingDuration="92.02" maxHaltingDuration="201.00" haltingDurationSum="6073.00" meanIntervalHaltingDuration="27.55" maxIntervalHaltingDuration="64.00" intervalHaltingDurationSum="1818.00" startedHalts="38.00" meanVehicleNumber="23.42" maxVehicleNumber="28" />
   <interval begin="24900.00" end="25000.00" id="e2_L64_0_3" sampledSeconds="2315.80" nVehEntered="2" nVehLeft="11" nVehSeen="29" meanSpeed="0.70" meanTimeLoss="75.40" meanOccupancy="38.43" maxOccupancy="46.64" meanMaxJamLengthInVehicles="18.08" meanMaxJamLengthInMeters="155.27" maxJamLengthInVehicles="28" maxJamLengthInMeters="242.66" jamLengthInVehiclesSum="1876" jamLengthInMetersSum="15919.75" meanHaltingDuration="35.38" maxHaltingDuration="85.00" haltingDurationSum="2477.00" meanIntervalHaltingDuration="27.51" maxIntervalHaltingDuration="81.00" intervalHaltingDurationSum="1926.00" startedHalts="50.00" meanVehicleNumber="23.21" maxVehicleNumber="28" />
   <interval begin="25000.00" end="25100.00" id="e2_L64_0_3" sampledSeconds="1800.00" nVehEntered="0" nVehLeft="0" nVehSeen="18" meanSpeed="0.08" meanTimeLoss="99.36" meanOccupancy="29.98" maxOccupancy="29.98" meanMaxJamLengthInVehicles="17.45" meanMaxJamLengthInMeters="157.00" maxJamLengthInVehicles="18" maxJamLengthInMeters="160.87" jamLengthInVehiclesSum="1752" jamLengthInMetersSum="15732.58" meanHaltingDuration="108.11" maxHaltingDuration="126.00" haltingDurationSum="1946.00" meanIntervalHaltingDuration="97.78" maxIntervalHaltingDuration="100.00" intervalHaltingDurationSum="1760.00" startedHalts="8.00" meanVehicleNumber="18.00" maxVehicleNumber="18" />
   <interval begin="25100.00" end="25200.00" id="e2_L64_0_3" sampledSeconds="802.73" nVehEntered="0" nVehLeft="16" nVehSeen="18" meanSpeed="1.95" meanTimeLoss="37.65" meanOccupancy="13.17" maxOccupancy="29.98" meanMaxJamLengthInVehicles="5.29" meanMaxJamLengthInMeters="39.68" maxJamLengthInVehicles="18" maxJamLengthInMeters="158.88" jamLengthInVehiclesSum="538" jamLengthInMetersSum="4009.48" meanHaltingDuration="92.33" maxHaltingDuration="139.00" haltingDurationSum="2493.00" meanIntervalHaltingDuration="20.26" maxIntervalHaltingDuration="41.00" intervalHaltingDurationSum="547.00" startedHalts="9.00" meanVehicleNumber="8.10" maxVehicleNumber="18" />
   <interval begin="25200.00" end="25300.00" id="e2_L64_0_3" sampledSeconds="200.00" nVehEntered="0" nVehLeft="0" nVehSeen="2" meanSpeed="0.00" meanTimeLoss="100.00" meanOccupancy="3.33" maxOccupancy="3.33" meanMaxJamLengthInVehicles="2.00" meanMaxJamLengthInMeters="18.60" maxJamLengthInVehicles="2" maxJamLengthInMeters="18.60" jamLengthInVehiclesSum="200" jamLengthInMetersSum="1860.21" meanHaltingDuration="128.00" maxHaltingDuration="129.00" haltingDurationSum="256.00" meanIntervalHaltingDuration="100.00" maxIntervalHaltingDuration="100.00" intervalHaltingDurationSum="200.00" startedHalts="0.00" meanVehicleNumber="2.00" maxVehicleNumber="2" />
   <interval begin="25300.00" end="25400.00" id="e2_L64_0_3" sampledSeconds="200.00" nVehEntered="0" nVehLeft="0" nVehSeen="2" meanSpeed="0.00" meanTimeLoss="100.00" meanOccupancy="3.33" maxOccupancy="3.33" meanMaxJamLengthInVehicles="2.00" meanMaxJamLengthInMeters="18.60" maxJamLengthInVehicles="2" maxJamLengthInMeters="18.60" jamLengthInVehiclesSum="200" jamLengthInMetersSum="1860.21" meanHaltingDuration="228.00" maxHaltingDuration="229.00" haltingDurationSum="456.00" meanIntervalHaltingDuration="100.00" maxIntervalHaltingDuration="100.00" intervalHaltingDurationSum="200.00" startedHalts="0.00" meanVehicleNumber="2.00" maxVehicleNumber="2" />
   <interval begin="25400.00" end="25500.00" id="e2_L64_0_3" sampledSeconds="200.00" nVehEntered="0" nVehLeft="0" nVehSeen="2" meanSpeed="0.00" meanTimeLoss="100.00" meanOccupancy="3.33" maxOccupancy="3.33" meanMaxJamLengthInVehicles="2.00" meanMaxJamLengthInMeters="18.60" maxJamLengthInVehicles="2" maxJamLengthInMeters="18.60" jamLengthInVehiclesSum="200" jamLengthInMetersSum="1860.21" meanHaltingDuration="328.00" maxHaltingDuration="329.00" haltingDurationSum="656.00" meanIntervalHaltingDuration="100.00" maxIntervalHaltingDuration="100.00" intervalHaltingDurationSum="200.00" startedHalts="0.00" meanVehicleNumber="2.00" maxVehicleNumber="2" />
   <interval begin="25500.00" end="25600.00" id="e2_L64_0_3" sampledSeconds="200.00" nVehEntered="0" nVehLeft="0" nVehSeen="2" meanSpeed="0.00" meanTimeLoss="100.00" meanOccupancy="3.33" maxOccupancy="3.33" meanMaxJamLengthInVehicles="2.00" meanMaxJamLengthInMeters="18.60" maxJamLengthInVehicles="2" maxJamLengthInMeters="18.60" jamLengthInVehiclesSum="200" jamLengthInMetersSum="1860.21" meanHaltingDuration="428.00" maxHaltingDuration="429.00" haltingDurationSum="856.00" meanIntervalHaltingDuration="100.00" maxIntervalHaltingDuration="100.00" intervalHaltingDurationSum="200.00" startedHalts="0.00" meanVehicleNumber="2.00" maxVehicleNumber="2" />
   <interval begin="25600.00" end="25700.00" id="e2_L64_0_3" sampledSeconds="93.71" nVehEntered="9" nVehLeft="3" nVehSeen="11" meanSpeed="1.97" meanTimeLoss="7.18" meanOccupancy="1.53" maxOccupancy="13.32" meanMaxJamLengthInVehicles="0.35" meanMaxJamLengthInMeters="2.27" maxJamLengthInVehicles="5" maxJamLengthInMeters="20.34" jamLengthInVehiclesSum="39" jamLengthInMetersSum="241.54" meanHaltingDuration="90.30" maxHaltingDuration="436.00" haltingDurationSum="903.00" meanIntervalHaltingDuration="4.70" maxIntervalHaltingDuration="9.00" intervalHaltingDurationSum="47.00" startedHalts="8.00" meanVehicleNumber="0.94" maxVehicleNumber="8" />
   <interval begin="25700.00" end="25800.00" id="e2_L64_0_3" sampledSeconds="900.00" nVehEntered="1" nVehLeft="0" nVehSeen="9" meanSpeed="0.02" meanTimeLoss="99.86" meanOccupancy="14.99" maxOccupancy="14.99" meanMaxJamLengthInVehicles="8.90" meanMaxJamLengthInMeters="32.33" maxJamLengthInVehicles="9" maxJamLengthInMeters="33.43" jamLengthInVehiclesSum="891" jamLengthInMetersSum="3237.49" meanHaltingDuration="84.00" maxHaltingDuration="108.00" haltingDurationSum="924.00" meanIntervalHaltingDuration="81.45" maxIntervalHaltingDuration="100.00" intervalHaltingDurationSum="896.00" startedHalts="5.00" meanVehicleNumber="9.00" maxVehicleNumber="9" />
   <interval begin="25800.00" end="25900.00" id="e2_L64_0_3" sampledSeconds="900.00" nVehEntered="0" nVehLeft="0" nVehSeen="9" meanSpeed="0.00" meanTimeLoss="100.00" meanOccupancy="14.99" maxOccupancy="14.99" meanMaxJamLengthInVehicles="9.00" meanMaxJamLengthInMeters="32.58" maxJamLengthInVehicles="9" maxJamLengthInMeters="32.58" jamLengthInVehiclesSum="900" jamLengthInMetersSum="3258.47" meanHaltingDuration="202.44" maxHaltingDuration="208.00" haltingDurationSum="1822.00" meanIntervalHaltingDuration="100.00" maxIntervalHaltingDuration="100.00" intervalHaltingDurationSum="900.00" startedHalts="0.00" meanVehicleNumber="9.00" maxVehicleNumber="9" />