<?xml version="1.0" encoding="UTF-8"?>

<!-- generated on Sun Feb 17 15:57:00 2019 by 
<configuration xmlns:xsi="http://www.w3.org/2001/XMLSchema-instance" xsi:noNamespaceSchemaLocation="http://sumo.dlr.de/xsd/Configuration.xsd">

    <input>
        <net-file value="/home/sda/Documents/sumo-sathorn-ray/models/sathorn-morning/sathorn_w_fixed_20160404.net.xml"/>
        <route-files value="/home/sda/Documents/sumo-sathorn-ray/models/sathorn-morning/Great-route/sathorn_w_20160422edit2.rou.xml"/>
        <additional-files value="/home/sda/Documents/sumo-sathorn-ray/models/sathorn-morning/sathon_wide_tls_20160418_edited.add.xml,/home/sda/Documents/sumo-sathorn-ray/detectors/sathorn_w_detectors.add.xml"/>
    </input>

    <time>
        <begin value="21600"/>
        <end value="32400"/>
        <step-length value="1"/>
    </time>

    <processing>
        <no-internal-links value="true"/>
        <ignore-junction-blocker value="-1"/>
        <time-to-teleport value="-1"/>
        <eager-insert value="true"/>
        <time-to-impatience value="300"/>
    </processing>

    <report>
        <no-warnings value="true"/>
    </report>

    <random_number>
        <random value="false"/>
        <seed value="20"/>
    </random_number>

    <gui_only>
        <gui-settings-file value="/home/sda/Documents/sumo-sathorn-ray/gui-settings/gui-settings-file-surasak.xml"/>
        <quit-on-end value="true"/>
        <start value="true"/>
        <tracker-interval value="1"/>
    </gui_only>

</configuration>
-->

<detector xmlns:xsi="http://www.w3.org/2001/XMLSchema-instance" xsi:noNamespaceSchemaLocation="http://sumo.dlr.de/xsd/det_e2_file.xsd">
   <interval begin="21600.00" end="21700.00" id="e2_L249_1_1" sampledSeconds="0.00" nVehEntered="0" nVehLeft="0" nVehSeen="0" meanSpeed="-1.00" meanTimeLoss="-1.00" meanOccupancy="0.00" maxOccupancy="0.00" meanMaxJamLengthInVehicles="0.00" meanMaxJamLengthInMeters="0.00" maxJamLengthInVehicles="0" maxJamLengthInMeters="0.00" jamLengthInVehiclesSum="0" jamLengthInMetersSum="0.00" meanHaltingDuration="0.00" maxHaltingDuration="0.00" haltingDurationSum="0.00" meanIntervalHaltingDuration="0.00" maxIntervalHaltingDuration="0.00" intervalHaltingDurationSum="0.00" startedHalts="0.00" meanVehicleNumber="0.00" maxVehicleNumber="0" />
   <interval begin="21700.00" end="21800.00" id="e2_L249_1_1" sampledSeconds="0.00" nVehEntered="0" nVehLeft="0" nVehSeen="0" meanSpeed="-1.00" meanTimeLoss="-1.00" meanOccupancy="0.00" maxOccupancy="0.00" meanMaxJamLengthInVehicles="0.00" meanMaxJamLengthInMeters="0.00" maxJamLengthInVehicles="0" maxJamLengthInMeters="0.00" jamLengthInVehiclesSum="0" jamLengthInMetersSum="0.00" meanHaltingDuration="0.00" maxHaltingDuration="0.00" haltingDurationSum="0.00" meanIntervalHaltingDuration="0.00" maxIntervalHaltingDuration="0.00" intervalHaltingDurationSum="0.00" startedHalts="0.00" meanVehicleNumber="0.00" maxVehicleNumber="0" />
   <interval begin="21800.00" end="21900.00" id="e2_L249_1_1" sampledSeconds="1.78" nVehEntered="1" nVehLeft="1" nVehSeen="1" meanSpeed="11.53" meanTimeLoss="0.14" meanOccupancy="0.08" maxOccupancy="8.40" meanMaxJamLengthInVehicles="0.00" meanMaxJamLengthInMeters="0.00" maxJamLengthInVehicles="0" maxJamLengthInMeters="0.00" jamLengthInVehiclesSum="0" jamLengthInMetersSum="0.00" meanHaltingDuration="0.00" maxHaltingDuration="0.00" haltingDurationSum="0.00" meanIntervalHaltingDuration="0.00" maxIntervalHaltingDuration="0.00" intervalHaltingDurationSum="0.00" startedHalts="0.00" meanVehicleNumber="0.02" maxVehicleNumber="1" />
   <interval begin="21900.00" end="22000.00" id="e2_L249_1_1" sampledSeconds="8.93" nVehEntered="3" nVehLeft="3" nVehSeen="3" meanSpeed="10.15" meanTimeLoss="0.55" meanOccupancy="0.55" maxOccupancy="8.40" meanMaxJamLengthInVehicles="0.00" meanMaxJamLengthInMeters="0.00" maxJamLengthInVehicles="0" maxJamLengthInMeters="0.00" jamLengthInVehiclesSum="0" jamLengthInMetersSum="0.00" meanHaltingDuration="0.00" maxHaltingDuration="0.00" haltingDurationSum="0.00" meanIntervalHaltingDuration="0.00" maxIntervalHaltingDuration="0.00" intervalHaltingDurationSum="0.00" startedHalts="0.00" meanVehicleNumber="0.10" maxVehicleNumber="1" />
   <interval begin="22000.00" end="22100.00" id="e2_L249_1_1" sampledSeconds="434.63" nVehEntered="16" nVehLeft="10" nVehSeen="16" meanSpeed="0.56" meanTimeLoss="25.94" meanOccupancy="36.18" maxOccupancy="50.12" meanMaxJamLengthInVehicles="3.86" meanMaxJamLengthInMeters="27.63" maxJamLengthInVehicles="6" maxJamLengthInMeters="46.64" jamLengthInVehiclesSum="386" jamLengthInMetersSum="2763.19" meanHaltingDuration="49.25" maxHaltingDuration="83.00" haltingDurationSum="394.00" meanIntervalHaltingDuration="49.25" maxIntervalHaltingDuration="83.00" intervalHaltingDurationSum="394.00" startedHalts="8.00" meanVehicleNumber="4.35" maxVehicleNumber="6" />
   <interval begin="22100.00" end="22200.00" id="e2_L249_1_1" sampledSeconds="600.00" nVehEntered="0" nVehLeft="0" nVehSeen="6" meanSpeed="0.00" meanTimeLoss="100.00" meanOccupancy="50.12" maxOccupancy="50.12" meanMaxJamLengthInVehicles="6.00" meanMaxJamLengthInMeters="46.57" maxJamLengthInVehicles="6" maxJamLengthInMeters="46.57" jamLengthInVehiclesSum="600" jamLengthInMetersSum="4656.62" meanHaltingDuration="165.33" maxHaltingDuration="183.00" haltingDurationSum="992.00" meanIntervalHaltingDuration="100.00" maxIntervalHaltingDuration="100.00" intervalHaltingDurationSum="600.00" startedHalts="0.00" meanVehicleNumber="6.00" maxVehicleNumber="6" />
   <interval begin="22200.00" end="22300.00" id="e2_L249_1_1" sampledSeconds="600.00" nVehEntered="0" nVehLeft="0" nVehSeen="6" meanSpeed="0.00" meanTimeLoss="100.00" meanOccupancy="50.12" maxOccupancy="50.12" meanMaxJamLengthInVehicles="6.00" meanMaxJamLengthInMeters="46.57" maxJamLengthInVehicles="6" maxJamLengthInMeters="46.57" jamLengthInVehiclesSum="600" jamLengthInMetersSum="4656.62" meanHaltingDuration="265.33" maxHaltingDuration="283.00" haltingDurationSum="1592.00" meanIntervalHaltingDuration="100.00" maxIntervalHaltingDuration="100.00" intervalHaltingDurationSum="600.00" startedHalts="0.00" meanVehicleNumber="6.00" maxVehicleNumber="6" />
   <interval begin="22300.00" end="22400.00" id="e2_L249_1_1" sampledSeconds="583.86" nVehEntered="3" nVehLeft="3" nVehSeen="9" meanSpeed="0.10" meanTimeLoss="64.34" meanOccupancy="48.57" maxOccupancy="50.13" meanMaxJamLengthInVehicles="5.59" meanMaxJamLengthInMeters="43.63" maxJamLengthInVehicles="6" maxJamLengthInMeters="51.18" jamLengthInVehiclesSum="564" jamLengthInMetersSum="4389.06" meanHaltingDuration="158.00" maxHaltingDuration="357.00" haltingDurationSum="1580.00" meanIntervalHaltingDuration="50.90" maxIntervalHaltingDuration="100.00" intervalHaltingDurationSum="509.00" startedHalts="7.00" meanVehicleNumber="5.84" maxVehicleNumber="6" />
   <interval begin="22400.00" end="22500.00" id="e2_L249_1_1" sampledSeconds="594.48" nVehEntered="0" nVehLeft="1" nVehSeen="6" meanSpeed="0.04" meanTimeLoss="98.74" meanOccupancy="49.48" maxOccupancy="50.12" meanMaxJamLengthInVehicles="5.87" meanMaxJamLengthInMeters="45.78" maxJamLengthInVehicles="6" maxJamLengthInMeters="49.85" jamLengthInVehiclesSum="587" jamLengthInMetersSum="4577.98" meanHaltingDuration="140.67" maxHaltingDuration="453.00" haltingDurationSum="1266.00" meanIntervalHaltingDuration="65.56" maxIntervalHaltingDuration="100.00" intervalHaltingDurationSum="590.00" startedHalts="3.00" meanVehicleNumber="5.95" maxVehicleNumber="6" />
   <interval begin="22500.00" end="22600.00" id="e2_L249_1_1" sampledSeconds="580.00" nVehEntered="2" nVehLeft="1" nVehSeen="7" meanSpeed="0.05" meanTimeLoss="82.52" meanOccupancy="46.81" maxOccupancy="48.48" meanMaxJamLengthInVehicles="5.70" meanMaxJamLengthInMeters="44.50" maxJamLengthInVehicles="6" maxJamLengthInMeters="46.99" jamLengthInVehiclesSum="571" jamLengthInMetersSum="4454.90" meanHaltingDuration="112.12" maxHaltingDuration="164.00" haltingDurationSum="897.00" meanIntervalHaltingDuration="71.75" maxIntervalHaltingDuration="100.00" intervalHaltingDurationSum="574.00" startedHalts="3.00" meanVehicleNumber="5.80" maxVehicleNumber="6" />
   <interval begin="22600.00" end="22700.00" id="e2_L249_1_1" sampledSeconds="600.00" nVehEntered="0" nVehLeft="0" nVehSeen="6" meanSpeed="0.00" meanTimeLoss="100.00" meanOccupancy="48.48" maxOccupancy="48.48" meanMaxJamLengthInVehicles="6.00" meanMaxJamLengthInMeters="46.57" maxJamLengthInVehicles="6" maxJamLengthInMeters="46.57" jamLengthInVehiclesSum="600" jamLengthInMetersSum="4656.62" meanHaltingDuration="196.67" maxHaltingDuration="203.00" haltingDurationSum="1180.00" meanIntervalHaltingDuration="100.00" maxIntervalHaltingDuration="100.00" intervalHaltingDurationSum="600.00" startedHalts="0.00" meanVehicleNumber="6.00" maxVehicleNumber="6" />
   <interval begin="22700.00" end="22800.00" id="e2_L249_1_1" sampledSeconds="600.00" nVehEntered="0" nVehLeft="0" nVehSeen="6" meanSpeed="0.00" meanTimeLoss="100.00" meanOccupancy="48.48" maxOccupancy="48.48" meanMaxJamLengthInVehicles="6.00" meanMaxJamLengthInMeters="46.57" maxJamLengthInVehicles="6" maxJamLengthInMeters="46.57" jamLengthInVehiclesSum="600" jamLengthInMetersSum="4656.62" meanHaltingDuration="296.67" maxHaltingDuration="303.00" haltingDurationSum="1780.00" meanIntervalHaltingDuration="100.00" maxIntervalHaltingDuration="100.00" intervalHaltingDurationSum="600.00" startedHalts="0.00" meanVehicleNumber="6.00" maxVehicleNumber="6" />
   <interval begin="22800.00" end="22900.00" id="e2_L249_1_1" sampledSeconds="600.00" nVehEntered="0" nVehLeft="0" nVehSeen="6" meanSpeed="0.00" meanTimeLoss="100.00" meanOccupancy="48.48" maxOccupancy="48.48" meanMaxJamLengthInVehicles="6.00" meanMaxJamLengthInMeters="46.57" maxJamLengthInVehicles="6" maxJamLengthInMeters="46.57" jamLengthInVehiclesSum="600" jamLengthInMetersSum="4656.62" meanHaltingDuration="396.67" maxHaltingDuration="403.00" haltingDurationSum="2380.00" meanIntervalHaltingDuration="100.00" maxIntervalHaltingDuration="100.00" intervalHaltingDurationSum="600.00" startedHalts="0.00" meanVehicleNumber="6.00" maxVehicleNumber="6" />
   <interval begin="22900.00" end="23000.00" id="e2_L249_1_1" sampledSeconds="600.00" nVehEntered="0" nVehLeft="0" nVehSeen="6" meanSpeed="0.00" meanTimeLoss="100.00" meanOccupancy="48.48" maxOccupancy="48.48" meanMaxJamLengthInVehicles="6.00" meanMaxJamLengthInMeters="46.57" maxJamLengthInVehicles="6" maxJamLengthInMeters="46.57" jamLengthInVehiclesSum="600" jamLengthInMetersSum="4656.62" meanHaltingDuration="496.67" maxHaltingDuration="503.00" haltingDurationSum="2980.00" meanIntervalHaltingDuration="100.00" maxIntervalHaltingDuration="100.00" intervalHaltingDurationSum="600.00" startedHalts="0.00" meanVehicleNumber="6.00" maxVehicleNumber="6" />
   <interval begin="23000.00" end="23100.00" id="e2_L249_1_1" sampledSeconds="600.00" nVehEntered="0" nVehLeft="0" nVehSeen="6" meanSpeed="0.00" meanTimeLoss="100.00" meanOccupancy="48.48" maxOccupancy="48.48" meanMaxJamLengthInVehicles="6.00" meanMaxJamLengthInMeters="46.57" maxJamLengthInVehicles="6" maxJamLengthInMeters="46.57" jamLengthInVehiclesSum="600" jamLengthInMetersSum="4656.62" meanHaltingDuration="596.67" maxHaltingDuration="603.00" haltingDurationSum="3580.00" meanIntervalHaltingDuration="100.00" maxIntervalHaltingDuration="100.00" intervalHaltingDurationSum="600.00" startedHalts="0.00" meanVehicleNumber="6.00" maxVehicleNumber="6" />
   <interval begin="23100.00" end="23200.00" id="e2_L249_1_1" sampledSeconds="600.00" nVehEntered="0" nVehLeft="0" nVehSeen="6" meanSpeed="0.00" meanTimeLoss="100.00" meanOccupancy="48.48" maxOccupancy="48.48" meanMaxJamLengthInVehicles="6.00" meanMaxJamLengthInMeters="46.57" maxJamLengthInVehicles="6" maxJamLengthInMeters="46.57" jamLengthInVehiclesSum="600" jamLengthInMetersSum="4656.62" meanHaltingDuration="696.67" maxHaltingDuration="703.00" haltingDurationSum="4180.00" meanIntervalHaltingDuration="100.00" maxIntervalHaltingDuration="100.00" intervalHaltingDurationSum="600.00" startedHalts="0.00" meanVehicleNumber="6.00" maxVehicleNumber="6" />
   <interval begin="23200.00" end="23300.00" id="e2_L249_1_1" sampledSeconds="600.00" nVehEntered="0" nVehLeft="0" nVehSeen="6" meanSpeed="0.00" meanTimeLoss="100.00" meanOccupancy="48.48" maxOccupancy="48.48" meanMaxJamLengthInVehicles="6.00" meanMaxJamLengthInMeters="46.57" maxJamLengthInVehicles="6" maxJamLengthInMeters="46.57" jamLengthInVehiclesSum="600" jamLengthInMetersSum="4656.62" meanHaltingDuration="796.67" maxHaltingDuration="803.00" haltingDurationSum="4780.00" meanIntervalHaltingDuration="100.00" maxIntervalHaltingDuration="100.00" intervalHaltingDurationSum="600.00" startedHalts="0.00" meanVehicleNumber="6.00" maxVehicleNumber="6" />
   <interval begin="23300.00" end="23400.00" id="e2_L249_1_1" sampledSeconds="600.00" nVehEntered="0" nVehLeft="0" nVehSeen="6" meanSpeed="0.00" meanTimeLoss="100.00" meanOccupancy="48.48" maxOccupancy="48.48" meanMaxJamLengthInVehicles="6.00" meanMaxJamLengthInMeters="46.57" maxJamLengthInVehicles="6" maxJamLengthInMeters="46.57" jamLengthInVehiclesSum="600" jamLengthInMetersSum="4656.62" meanHaltingDuration="896.67" maxHaltingDuration="903.00" haltingDurationSum="5380.00" meanIntervalHaltingDuration="100.00" maxIntervalHaltingDuration="100.00" intervalHaltingDurationSum="600.00" startedHalts="0.00" meanVehicleNumber="6.00" maxVehicleNumber="6" />
   <interval begin="23400.00" end="23500.00" id="e2_L249_1_1" sampledSeconds="600.00" nVehEntered="0" nVehLeft="0" nVehSeen="6" meanSpeed="0.00" meanTimeLoss="100.00" meanOccupancy="48.48" maxOccupancy="48.48" meanMaxJamLengthInVehicles="6.00" meanMaxJamLengthInMeters="46.57" maxJamLengthInVehicles="6" maxJamLengthInMeters="46.57" jamLengthInVehiclesSum="600" jamLengthInMetersSum="4656.62" meanHaltingDuration="996.67" maxHaltingDuration="1003.00" haltingDurationSum="5980.00" meanIntervalHaltingDuration="100.00" maxIntervalHaltingDuration="100.00" intervalHaltingDurationSum="600.00" startedHalts="0.00" meanVehicleNumber="6.00" maxVehicleNumber="6" />
   <interval begin="23500.00" end="23600.00" id="e2_L249_1_1" sampledSeconds="600.00" nVehEntered="0" nVehLeft="0" nVehSeen="6" meanSpeed="0.00" meanTimeLoss="100.00" meanOccupancy="48.48" maxOccupancy="48.48" meanMaxJamLengthInVehicles="6.00" meanMaxJamLengthInMeters="46.57" maxJamLengthInVehicles="6" maxJamLengthInMeters="46.57" jamLengthInVehiclesSum="600" jamLengthInMetersSum="4656.62" meanHaltingDuration="1096.67" maxHaltingDuration="1103.00" haltingDurationSum="6580.00" meanIntervalHaltingDuration="100.00" maxIntervalHaltingDuration="100.00" intervalHaltingDurationSum="600.00" startedHalts="0.00" meanVehicleNumber="6.00" maxVehicleNumber="6" />
   <interval begin="23600.00" end="23700.00" id="e2_L249_1_1" sampledSeconds="600.00" nVehEntered="0" nVehLeft="0" nVehSeen="6" meanSpeed="0.00" meanTimeLoss="100.00" meanOccupancy="48.48" maxOccupancy="48.48" meanMaxJamLengthInVehicles="6.00" meanMaxJamLengthInMeters="46.57" maxJamLengthInVehicles="6" maxJamLengthInMeters="46.57" jamLengthInVehiclesSum="600" jamLengthInMetersSum="4656.62" meanHaltingDuration="1196.67" maxHaltingDuration="1203.00" haltingDurationSum="7180.00" meanIntervalHaltingDuration="100.00" maxIntervalHaltingDuration="100.00" intervalHaltingDurationSum="600.00" startedHalts="0.00" meanVehicleNumber="6.00" maxVehicleNumber="6" />
   <interval begin="23700.00" end="23800.00" id="e2_L249_1_1" sampledSeconds="587.86" nVehEntered="1" nVehLeft="1" nVehSeen="7" meanSpeed="0.07" meanTimeLoss="83.53" meanOccupancy="47.72" maxOccupancy="50.12" meanMaxJamLengthInVehicles="5.74" meanMaxJamLengthInMeters="44.99" maxJamLengthInVehicles="6" maxJamLengthInMeters="48.18" jamLengthInVehiclesSum="575" jamLengthInMetersSum="4503.87" meanHaltingDuration="705.45" maxHaltingDuration="1303.00" haltingDurationSum="7760.00" meanIntervalHaltingDuration="52.73" maxIntervalHaltingDuration="100.00" intervalHaltingDurationSum="580.00" startedHalts="6.00" meanVehicleNumber="5.88" maxVehicleNumber="6" />
   <interval begin="23800.00" end="23900.00" id="e2_L249_1_1" sampledSeconds="589.93" nVehEntered="1" nVehLeft="1" nVehSeen="7" meanSpeed="0.08" meanTimeLoss="83.77" meanOccupancy="49.15" maxOccupancy="50.16" meanMaxJamLengthInVehicles="5.70" meanMaxJamLengthInMeters="44.37" maxJamLengthInVehicles="6" maxJamLengthInMeters="48.86" jamLengthInVehiclesSum="575" jamLengthInMetersSum="4459.72" meanHaltingDuration="163.58" maxHaltingDuration="1361.00" haltingDurationSum="1963.00" meanIntervalHaltingDuration="48.42" maxIntervalHaltingDuration="65.00" intervalHaltingDurationSum="581.00" startedHalts="6.00" meanVehicleNumber="5.90" maxVehicleNumber="6" />
   <interval begin="23900.00" end="24000.00" id="e2_L249_1_1" sampledSeconds="577.66" nVehEntered="1" nVehLeft="2" nVehSeen="7" meanSpeed="0.08" meanTimeLoss="81.96" meanOccupancy="48.13" maxOccupancy="50.42" meanMaxJamLengthInVehicles="5.55" meanMaxJamLengthInMeters="41.79" maxJamLengthInVehicles="6" maxJamLengthInMeters="49.59" jamLengthInVehiclesSum="559" jamLengthInMetersSum="4197.88" meanHaltingDuration="65.17" maxHaltingDuration="115.00" haltingDurationSum="782.00" meanIntervalHaltingDuration="47.08" maxIntervalHaltingDuration="82.00" intervalHaltingDurationSum="565.00" startedHalts="6.00" meanVehicleNumber="5.78" maxVehicleNumber="6" />
   <interval begin="24000.00" end="24100.00" id="e2_L249_1_1" sampledSeconds="500.00" nVehEntered="0" nVehLeft="0" nVehSeen="5" meanSpeed="0.00" meanTimeLoss="100.00" meanOccupancy="42.02" maxOccupancy="42.02" meanMaxJamLengthInVehicles="5.00" meanMaxJamLengthInMeters="32.58" maxJamLengthInVehicles="5" maxJamLengthInMeters="32.58" jamLengthInVehiclesSum="500" jamLengthInMetersSum="3258.42" meanHaltingDuration="119.20" maxHaltingDuration="123.00" haltingDurationSum="596.00" meanIntervalHaltingDuration="100.00" maxIntervalHaltingDuration="100.00" intervalHaltingDurationSum="500.00" startedHalts="0.00" meanVehicleNumber="5.00" maxVehicleNumber="5" />
   <interval begin="24100.00" end="24200.00" id="e2_L249_1_1" sampledSeconds="612.00" nVehEntered="7" nVehLeft="5" nVehSeen="12" meanSpeed="0.14" meanTimeLoss="50.41" meanOccupancy="51.23" maxOccupancy="58.52" meanMaxJamLengthInVehicles="5.76" meanMaxJamLengthInMeters="38.12" maxJamLengthInVehicles="7" maxJamLengthInMeters="46.77" jamLengthInVehiclesSum="578" jamLengthInMetersSum="3821.22" meanHaltingDuration="84.43" maxHaltingDuration="150.00" haltingDurationSum="1182.00" meanIntervalHaltingDuration="41.86" maxIntervalHaltingDuration="72.00" intervalHaltingDurationSum="586.00" startedHalts="11.00" meanVehicleNumber="6.12" maxVehicleNumber="7" />
   <interval begin="24200.00" end="24300.00" id="e2_L249_1_1" sampledSeconds="700.00" nVehEntered="0" nVehLeft="0" nVehSeen="7" meanSpeed="0.00" meanTimeLoss="100.00" meanOccupancy="58.52" maxOccupancy="58.52" meanMaxJamLengthInVehicles="7.00" meanMaxJamLengthInMeters="46.57" maxJamLengthInVehicles="7" maxJamLengthInMeters="46.57" jamLengthInVehiclesSum="700" jamLengthInMetersSum="4656.63" meanHaltingDuration="162.71" maxHaltingDuration="172.00" haltingDurationSum="1139.00" meanIntervalHaltingDuration="100.00" maxIntervalHaltingDuration="100.00" intervalHaltingDurationSum="700.00" startedHalts="0.00" meanVehicleNumber="7.00" maxVehicleNumber="7" />
   <interval begin="24300.00" end="24400.00" id="e2_L249_1_1" sampledSeconds="700.00" nVehEntered="0" nVehLeft="0" nVehSeen="7" meanSpeed="0.00" meanTimeLoss="100.00" meanOccupancy="58.52" maxOccupancy="58.52" meanMaxJamLengthInVehicles="7.00" meanMaxJamLengthInMeters="46.57" maxJamLengthInVehicles="7" maxJamLengthInMeters="46.57" jamLengthInVehiclesSum="700" jamLengthInMetersSum="4656.63" meanHaltingDuration="262.71" maxHaltingDuration="272.00" haltingDurationSum="1839.00" meanIntervalHaltingDuration="100.00" maxIntervalHaltingDuration="100.00" intervalHaltingDurationSum="700.00" startedHalts="0.00" meanVehicleNumber="7.00" maxVehicleNumber="7" />
   <interval begin="24400.00" end="24500.00" id="e2_L249_1_1" sampledSeconds="700.00" nVehEntered="0" nVehLeft="0" nVehSeen="7" meanSpeed="0.00" meanTimeLoss="100.00" meanOccupancy="58.52" maxOccupancy="58.52" meanMaxJamLengthInVehicles="7.00" meanMaxJamLengthInMeters="46.57" maxJamLengthInVehicles="7" maxJamLengthInMeters="46.57" jamLengthInVehiclesSum="700" jamLengthInMetersSum="4656.63" meanHaltingDuration="362.71" maxHaltingDuration="372.00" haltingDurationSum="2539.00" meanIntervalHaltingDuration="100.00" maxIntervalHaltingDuration="100.00" intervalHaltingDurationSum="700.00" startedHalts="0.00" meanVehicleNumber="7.00" maxVehicleNumber="7" />
   <interval begin="24500.00" end="24600.00" id="e2_L249_1_1" sampledSeconds="700.00" nVehEntered="0" nVehLeft="0" nVehSeen="7" meanSpeed="0.00" meanTimeLoss="100.00" meanOccupancy="58.52" maxOccupancy="58.52" meanMaxJamLengthInVehicles="7.00" meanMaxJamLengthInMeters="46.57" maxJamLengthInVehicles="7" maxJamLengthInMeters="46.57" jamLengthInVehiclesSum="700" jamLengthInMetersSum="4656.63" meanHaltingDuration="462.71" maxHaltingDuration="472.00" haltingDurationSum="3239.00" meanIntervalHaltingDuration="100.00" maxIntervalHaltingDuration="100.00" intervalHaltingDurationSum="700.00" startedHalts="0.00" meanVehicleNumber="7.00" maxVehicleNumber="7" />
   <interval begin="24600.00" end="24700.00" id="e2_L249_1_1" sampledSeconds="696.47" nVehEntered="0" nVehLeft="1" nVehSeen="7" meanSpeed="0.03" meanTimeLoss="99.26" meanOccupancy="58.07" maxOccupancy="58.52" meanMaxJamLengthInVehicles="6.87" meanMaxJamLengthInMeters="45.76" maxJamLengthInVehicles="7" maxJamLengthInMeters="47.40" jamLengthInVehiclesSum="688" jamLengthInMetersSum="4580.37" meanHaltingDuration="393.00" maxHaltingDuration="568.00" haltingDurationSum="3930.00" meanIntervalHaltingDuration="69.10" maxIntervalHaltingDuration="100.00" intervalHaltingDurationSum="691.00" startedHalts="3.00" meanVehicleNumber="6.97" maxVehicleNumber="7" />
   <interval begin="24700.00" end="24800.00" id="e2_L249_1_1" sampledSeconds="552.14" nVehEntered="10" nVehLeft="10" nVehSeen="16" meanSpeed="0.36" meanTimeLoss="33.50" meanOccupancy="45.73" maxOccupancy="58.53" meanMaxJamLengthInVehicles="4.84" meanMaxJamLengthInMeters="32.09" maxJamLengthInVehicles="6" maxJamLengthInMeters="45.00" jamLengthInVehiclesSum="488" jamLengthInMetersSum="3233.69" meanHaltingDuration="110.93" maxHaltingDuration="628.00" haltingDurationSum="1553.00" meanIntervalHaltingDuration="30.64" maxIntervalHaltingDuration="71.00" intervalHaltingDurationSum="429.00" startedHalts="11.00" meanVehicleNumber="5.53" maxVehicleNumber="7" />
   <interval begin="24800.00" end="24900.00" id="e2_L249_1_1" sampledSeconds="600.00" nVehEntered="0" nVehLeft="0" nVehSeen="6" meanSpeed="0.01" meanTimeLoss="99.92" meanOccupancy="50.12" maxOccupancy="50.12" meanMaxJamLengthInVehicles="5.97" meanMaxJamLengthInMeters="39.37" maxJamLengthInVehicles="6" maxJamLengthInMeters="39.59" jamLengthInVehiclesSum="597" jamLengthInMetersSum="3936.57" meanHaltingDuration="114.67" maxHaltingDuration="123.00" haltingDurationSum="688.00" meanIntervalHaltingDuration="99.67" maxIntervalHaltingDuration="100.00" intervalHaltingDurationSum="598.00" startedHalts="1.00" meanVehicleNumber="6.00" maxVehicleNumber="6" />
   <interval begin="24900.00" end="25000.00" id="e2_L249_1_1" sampledSeconds="644.87" nVehEntered="6" nVehLeft="5" nVehSeen="12" meanSpeed="0.12" meanTimeLoss="53.21" meanOccupancy="52.59" maxOccupancy="56.89" meanMaxJamLengthInVehicles="6.12" meanMaxJamLengthInMeters="40.57" maxJamLengthInVehicles="7" maxJamLengthInMeters="46.79" jamLengthInVehiclesSum="614" jamLengthInMetersSum="4065.74" meanHaltingDuration="100.69" maxHaltingDuration="146.00" haltingDurationSum="1309.00" meanIntervalHaltingDuration="47.77" maxIntervalHaltingDuration="74.00" intervalHaltingDurationSum="621.00" startedHalts="8.00" meanVehicleNumber="6.45" maxVehicleNumber="7" />
   <interval begin="25000.00" end="25100.00" id="e2_L249_1_1" sampledSeconds="700.00" nVehEntered="0" nVehLeft="0" nVehSeen="7" meanSpeed="0.00" meanTimeLoss="100.00" meanOccupancy="56.89" maxOccupancy="56.89" meanMaxJamLengthInVehicles="7.00" meanMaxJamLengthInMeters="46.57" maxJamLengthInVehicles="7" maxJamLengthInMeters="46.57" jamLengthInVehiclesSum="700" jamLengthInMetersSum="4656.63" meanHaltingDuration="166.71" maxHaltingDuration="174.00" haltingDurationSum="1167.00" meanIntervalHaltingDuration="100.00" maxIntervalHaltingDuration="100.00" intervalHaltingDurationSum="700.00" startedHalts="0.00" meanVehicleNumber="7.00" maxVehicleNumber="7" />
   <interval begin="25100.00" end="25200.00" id="e2_L249_1_1" sampledSeconds="700.00" nVehEntered="0" nVehLeft="0" nVehSeen="7" meanSpeed="0.00" meanTimeLoss="100.00" meanOccupancy="56.89" maxOccupancy="56.89" meanMaxJamLengthInVehicles="7.00" meanMaxJamLengthInMeters="46.57" maxJamLengthInVehicles="7" maxJamLengthInMeters="46.57" jamLengthInVehiclesSum="700" jamLengthInMetersSum="4656.63" meanHaltingDuration="266.71" maxHaltingDuration="274.00" haltingDurationSum="1867.00" meanIntervalHaltingDuration="100.00" maxIntervalHaltingDuration="100.00" intervalHaltingDurationSum="700.00" startedHalts="0.00" meanVehicleNumber="7.00" maxVehicleNumber="7" />
   <interval begin="25200.00" end="25300.00" id="e2_L249_1_1" sampledSeconds="700.00" nVehEntered="0" nVehLeft="0" nVehSeen="7" meanSpeed="0.00" meanTimeLoss="100.00" meanOccupancy="56.89" maxOccupancy="56.89" meanMaxJamLengthInVehicles="7.00" meanMaxJamLengthInMeters="46.57" maxJamLengthInVehicles="7" maxJamLengthInMeters="46.57" jamLengthInVehiclesSum="700" jamLengthInMetersSum="4656.63" meanHaltingDuration="366.71" maxHaltingDuration="374.00" haltingDurationSum="2567.00" meanIntervalHaltingDuration="100.00" maxIntervalHaltingDuration="100.00" intervalHaltingDurationSum="700.00" startedHalts="0.00" meanVehicleNumber="7.00" maxVehicleNumber="7" />
   <interval begin="25300.00" end="25400.00" id="e2_L249_1_1" sampledSeconds="700.00" nVehEntered="0" nVehLeft="0" nVehSeen="7" meanSpeed="0.00" meanTimeLoss="100.00" meanOccupancy="56.89" maxOccupancy="56.89" meanMaxJamLengthInVehicles="7.00" meanMaxJamLengthInMeters="46.57" maxJamLengthInVehicles="7" maxJamLengthInMeters="46.57" jamLengthInVehiclesSum="700" jamLengthInMetersSum="4656.63" meanHaltingDuration="466.71" maxHaltingDuration="474.00" haltingDurationSum="3267.00" meanIntervalHaltingDuration="100.00" maxIntervalHaltingDuration="100.00" intervalHaltingDurationSum="700.00" startedHalts="0.00" meanVehicleNumber="7.00" maxVehicleNumber="7" />
   <interval begin="25400.00" end="25500.00" id="e2_L249_1_1" sampledSeconds="611.99" nVehEntered="8" nVehLeft="12" nVehSeen="15" meanSpeed="0.54" meanTimeLoss="39.03" meanOccupancy="49.68" maxOccupancy="58.52" meanMaxJamLengthInVehicles="4.70" meanMaxJamLengthInMeters="31.12" maxJamLengthInVehicles="7" maxJamLengthInMeters="47.84" jamLengthInVehiclesSum="471" jamLengthInMetersSum="3116.37" meanHaltingDuration="110.73" maxHaltingDuration="507.00" haltingDurationSum="3765.00" meanIntervalHaltingDuration="14.65" maxIntervalHaltingDuration="40.00" intervalHaltingDurationSum="498.00" startedHalts="28.00" meanVehicleNumber="6.16" maxVehicleNumber="7" />
   <interval begin="25500.00" end="25600.00" id="e2_L249_1_1" sampledSeconds="447.32" nVehEntered="13" nVehLeft="12" nVehSeen="16" meanSpeed="0.67" meanTimeLoss="26.47" meanOccupancy="35.99" maxOccupancy="42.02" meanMaxJamLengthInVehicles="3.36" meanMaxJamLengthInMeters="25.90" maxJamLengthInVehicles="5" maxJamLengthInMeters="40.78" jamLengthInVehiclesSum="338" jamLengthInMetersSum="2594.75" meanHaltingDuration="15.00" maxHaltingDuration="36.00" haltingDurationSum="345.00" meanIntervalHaltingDuration="15.00" maxIntervalHaltingDuration="36.00" intervalHaltingDurationSum="345.00" startedHalts="24.00" meanVehicleNumber="4.50" maxVehicleNumber="5" />
   <interval begin="25600.00" end="25700.00" id="e2_L249_1_1" sampledSeconds="227.31" nVehEntered="16" nVehLeft="16" nVehSeen="20" meanSpeed="1.64" meanTimeLoss="9.87" meanOccupancy="18.09" maxOccupancy="33.31" meanMaxJamLengthInVehicles="1.27" meanMaxJamLengthInMeters="13.65" maxJamLengthInVehicles="4" maxJamLengthInMeters="46.63" jamLengthInVehiclesSum="127" jamLengthInMetersSum="1364.63" meanHaltingDuration="13.71" maxHaltingDuration="49.00" haltingDurationSum="192.00" meanIntervalHaltingDuration="9.86" maxIntervalHaltingDuration="49.00" intervalHaltingDurationSum="138.00" startedHalts="14.00" meanVehicleNumber="2.31" maxVehicleNumber="4" />
   <interval begin="25700.00" end="25800.00" id="e2_L249_1_1" sampledSeconds="400.00" nVehEntered="0" nVehLeft="0" nVehSeen="4" meanSpeed="0.00" meanTimeLoss="100.00" meanOccupancy="33.31" maxOccupancy="33.31" meanMaxJamLengthInVehicles="4.00" meanMaxJamLengthInMeters="46.57" maxJamLengthInVehicles="4" maxJamLengthInMeters="46.57" jamLengthInVehiclesSum="400" jamLengthInMetersSum="4656.62" meanHaltingDuration="131.50" maxHaltingDuration="149.00" haltingDurationSum="526.00" meanIntervalHaltingDuration="100.00" maxIntervalHaltingDuration="100.00" intervalHaltingDurationSum="400.00" startedHalts="0.00" meanVehicleNumber="4.00" maxVehicleNumber="4" />
   <interval begin="25800.00" end="25900.00" id="e2_L249_1_1" sampledSeconds="400.00" nVehEntered="0" nVehLeft="0" nVehSeen="4" meanSpeed="0.00" meanTimeLoss="100.00" meanOccupancy="33.31" maxOccupancy="33.31" meanMaxJamLengthInVehicles="4.00" meanMaxJamLengthInMeters="46.57" maxJamLengthInVehicles="4" maxJamLengthInMeters="46.57" jamLengthInVehiclesSum="400" jamLengthInMetersSum="4656.62" meanHaltingDuration="231.50" maxHaltingDuration="249.00" haltingDurationSum="926.00" meanIntervalHaltingDuration="100.00" maxIntervalHaltingDuration="100.00" intervalHaltingDurationSum="400.00" startedHalts="0.00" meanVehicleNumber="4.00" maxVehicleNumber="4" />