<?xml version="1.0" encoding="UTF-8"?>

<!-- generated on Sun Feb 17 15:57:00 2019 by 
<configuration xmlns:xsi="http://www.w3.org/2001/XMLSchema-instance" xsi:noNamespaceSchemaLocation="http://sumo.dlr.de/xsd/Configuration.xsd">

    <input>
        <net-file value="/home/sda/Documents/sumo-sathorn-ray/models/sathorn-morning/sathorn_w_fixed_20160404.net.xml"/>
        <route-files value="/home/sda/Documents/sumo-sathorn-ray/models/sathorn-morning/Great-route/sathorn_w_20160422edit2.rou.xml"/>
        <additional-files value="/home/sda/Documents/sumo-sathorn-ray/models/sathorn-morning/sathon_wide_tls_20160418_edited.add.xml,/home/sda/Documents/sumo-sathorn-ray/detectors/sathorn_w_detectors.add.xml"/>
    </input>

    <time>
        <begin value="21600"/>
        <end value="32400"/>
        <step-length value="1"/>
    </time>

    <processing>
        <no-internal-links value="true"/>
        <ignore-junction-blocker value="-1"/>
        <time-to-teleport value="-1"/>
        <eager-insert value="true"/>
        <time-to-impatience value="300"/>
    </processing>

    <report>
        <no-warnings value="true"/>
    </report>

    <random_number>
        <random value="false"/>
        <seed value="20"/>
    </random_number>

    <gui_only>
        <gui-settings-file value="/home/sda/Documents/sumo-sathorn-ray/gui-settings/gui-settings-file-surasak.xml"/>
        <quit-on-end value="true"/>
        <start value="true"/>
        <tracker-interval value="1"/>
    </gui_only>

</configuration>
-->

<detector xmlns:xsi="http://www.w3.org/2001/XMLSchema-instance" xsi:noNamespaceSchemaLocation="http://sumo.dlr.de/xsd/det_e2_file.xsd">
   <interval begin="21600.00" end="21700.00" id="e2_L239_3_0" sampledSeconds="0.00" nVehEntered="0" nVehLeft="0" nVehSeen="0" meanSpeed="-1.00" meanTimeLoss="-1.00" meanOccupancy="0.00" maxOccupancy="0.00" meanMaxJamLengthInVehicles="0.00" meanMaxJamLengthInMeters="0.00" maxJamLengthInVehicles="0" maxJamLengthInMeters="0.00" jamLengthInVehiclesSum="0" jamLengthInMetersSum="0.00" meanHaltingDuration="0.00" maxHaltingDuration="0.00" haltingDurationSum="0.00" meanIntervalHaltingDuration="0.00" maxIntervalHaltingDuration="0.00" intervalHaltingDurationSum="0.00" startedHalts="0.00" meanVehicleNumber="0.00" maxVehicleNumber="0" />
   <interval begin="21700.00" end="21800.00" id="e2_L239_3_0" sampledSeconds="0.00" nVehEntered="0" nVehLeft="0" nVehSeen="0" meanSpeed="-1.00" meanTimeLoss="-1.00" meanOccupancy="0.00" maxOccupancy="0.00" meanMaxJamLengthInVehicles="0.00" meanMaxJamLengthInMeters="0.00" maxJamLengthInVehicles="0" maxJamLengthInMeters="0.00" jamLengthInVehiclesSum="0" jamLengthInMetersSum="0.00" meanHaltingDuration="0.00" maxHaltingDuration="0.00" haltingDurationSum="0.00" meanIntervalHaltingDuration="0.00" maxIntervalHaltingDuration="0.00" intervalHaltingDurationSum="0.00" startedHalts="0.00" meanVehicleNumber="0.00" maxVehicleNumber="0" />
   <interval begin="21800.00" end="21900.00" id="e2_L239_3_0" sampledSeconds="0.00" nVehEntered="0" nVehLeft="0" nVehSeen="0" meanSpeed="-1.00" meanTimeLoss="-1.00" meanOccupancy="0.00" maxOccupancy="0.00" meanMaxJamLengthInVehicles="0.00" meanMaxJamLengthInMeters="0.00" maxJamLengthInVehicles="0" maxJamLengthInMeters="0.00" jamLengthInVehiclesSum="0" jamLengthInMetersSum="0.00" meanHaltingDuration="0.00" maxHaltingDuration="0.00" haltingDurationSum="0.00" meanIntervalHaltingDuration="0.00" maxIntervalHaltingDuration="0.00" intervalHaltingDurationSum="0.00" startedHalts="0.00" meanVehicleNumber="0.00" maxVehicleNumber="0" />
   <interval begin="21900.00" end="22000.00" id="e2_L239_3_0" sampledSeconds="28.00" nVehEntered="2" nVehLeft="0" nVehSeen="2" meanSpeed="1.24" meanTimeLoss="12.50" meanOccupancy="3.58" maxOccupancy="25.58" meanMaxJamLengthInVehicles="0.19" meanMaxJamLengthInMeters="0.93" maxJamLengthInVehicles="2" maxJamLengthInMeters="11.85" jamLengthInVehiclesSum="19" jamLengthInMetersSum="92.89" meanHaltingDuration="10.50" maxHaltingDuration="18.00" haltingDurationSum="21.00" meanIntervalHaltingDuration="10.50" maxIntervalHaltingDuration="18.00" intervalHaltingDurationSum="21.00" startedHalts="2.00" meanVehicleNumber="0.28" maxVehicleNumber="2" />
   <interval begin="22000.00" end="22100.00" id="e2_L239_3_0" sampledSeconds="532.62" nVehEntered="4" nVehLeft="0" nVehSeen="6" meanSpeed="0.07" meanTimeLoss="88.28" meanOccupancy="59.33" maxOccupancy="64.41" meanMaxJamLengthInVehicles="5.21" meanMaxJamLengthInMeters="30.89" maxJamLengthInVehicles="6" maxJamLengthInMeters="35.12" jamLengthInVehiclesSum="521" jamLengthInMetersSum="3089.45" meanHaltingDuration="91.00" maxHaltingDuration="118.00" haltingDurationSum="546.00" meanIntervalHaltingDuration="87.50" maxIntervalHaltingDuration="100.00" intervalHaltingDurationSum="525.00" startedHalts="4.00" meanVehicleNumber="5.35" maxVehicleNumber="6" />
   <interval begin="22100.00" end="22200.00" id="e2_L239_3_0" sampledSeconds="600.00" nVehEntered="0" nVehLeft="0" nVehSeen="6" meanSpeed="0.00" meanTimeLoss="100.00" meanOccupancy="64.41" maxOccupancy="64.41" meanMaxJamLengthInVehicles="6.00" meanMaxJamLengthInMeters="35.12" maxJamLengthInVehicles="6" maxJamLengthInMeters="35.12" jamLengthInVehiclesSum="600" jamLengthInMetersSum="3511.89" meanHaltingDuration="191.00" maxHaltingDuration="218.00" haltingDurationSum="1146.00" meanIntervalHaltingDuration="100.00" maxIntervalHaltingDuration="100.00" intervalHaltingDurationSum="600.00" startedHalts="0.00" meanVehicleNumber="6.00" maxVehicleNumber="6" />
   <interval begin="22200.00" end="22300.00" id="e2_L239_3_0" sampledSeconds="600.00" nVehEntered="0" nVehLeft="0" nVehSeen="6" meanSpeed="0.00" meanTimeLoss="100.00" meanOccupancy="64.41" maxOccupancy="64.41" meanMaxJamLengthInVehicles="6.00" meanMaxJamLengthInMeters="35.12" maxJamLengthInVehicles="6" maxJamLengthInMeters="35.12" jamLengthInVehiclesSum="600" jamLengthInMetersSum="3511.89" meanHaltingDuration="291.00" maxHaltingDuration="318.00" haltingDurationSum="1746.00" meanIntervalHaltingDuration="100.00" maxIntervalHaltingDuration="100.00" intervalHaltingDurationSum="600.00" startedHalts="0.00" meanVehicleNumber="6.00" maxVehicleNumber="6" />
   <interval begin="22300.00" end="22400.00" id="e2_L239_3_0" sampledSeconds="587.91" nVehEntered="1" nVehLeft="1" nVehSeen="7" meanSpeed="0.07" meanTimeLoss="83.53" meanOccupancy="64.42" maxOccupancy="65.60" meanMaxJamLengthInVehicles="5.68" meanMaxJamLengthInMeters="33.62" maxJamLengthInVehicles="6" maxJamLengthInMeters="35.55" jamLengthInVehiclesSum="570" jamLengthInMetersSum="3367.04" meanHaltingDuration="193.50" maxHaltingDuration="333.00" haltingDurationSum="2322.00" meanIntervalHaltingDuration="48.00" maxIntervalHaltingDuration="81.00" intervalHaltingDurationSum="576.00" startedHalts="6.00" meanVehicleNumber="5.88" maxVehicleNumber="6" />
   <interval begin="22400.00" end="22500.00" id="e2_L239_3_0" sampledSeconds="581.30" nVehEntered="1" nVehLeft="2" nVehSeen="7" meanSpeed="0.13" meanTimeLoss="82.15" meanOccupancy="63.82" maxOccupancy="65.60" meanMaxJamLengthInVehicles="5.48" meanMaxJamLengthInMeters="32.33" maxJamLengthInVehicles="6" maxJamLengthInMeters="35.55" jamLengthInVehiclesSum="548" jamLengthInMetersSum="3233.42" meanHaltingDuration="84.75" maxHaltingDuration="166.00" haltingDurationSum="1017.00" meanIntervalHaltingDuration="46.17" maxIntervalHaltingDuration="92.00" intervalHaltingDurationSum="554.00" startedHalts="6.00" meanVehicleNumber="5.83" maxVehicleNumber="6" />
   <interval begin="22500.00" end="22600.00" id="e2_L239_3_0" sampledSeconds="595.25" nVehEntered="1" nVehLeft="0" nVehSeen="6" meanSpeed="0.00" meanTimeLoss="99.20" meanOccupancy="64.38" maxOccupancy="64.41" meanMaxJamLengthInVehicles="5.95" meanMaxJamLengthInMeters="35.00" maxJamLengthInVehicles="6" maxJamLengthInMeters="35.12" jamLengthInVehiclesSum="595" jamLengthInMetersSum="3499.78" meanHaltingDuration="103.33" maxHaltingDuration="107.00" haltingDurationSum="620.00" meanIntervalHaltingDuration="99.33" maxIntervalHaltingDuration="100.00" intervalHaltingDurationSum="596.00" startedHalts="1.00" meanVehicleNumber="5.96" maxVehicleNumber="6" />
   <interval begin="22600.00" end="22700.00" id="e2_L239_3_0" sampledSeconds="600.00" nVehEntered="0" nVehLeft="0" nVehSeen="6" meanSpeed="0.00" meanTimeLoss="100.00" meanOccupancy="64.41" maxOccupancy="64.41" meanMaxJamLengthInVehicles="6.00" meanMaxJamLengthInMeters="35.12" maxJamLengthInVehicles="6" maxJamLengthInMeters="35.12" jamLengthInVehiclesSum="600" jamLengthInMetersSum="3511.89" meanHaltingDuration="203.33" maxHaltingDuration="207.00" haltingDurationSum="1220.00" meanIntervalHaltingDuration="100.00" maxIntervalHaltingDuration="100.00" intervalHaltingDurationSum="600.00" startedHalts="0.00" meanVehicleNumber="6.00" maxVehicleNumber="6" />
   <interval begin="22700.00" end="22800.00" id="e2_L239_3_0" sampledSeconds="600.00" nVehEntered="0" nVehLeft="0" nVehSeen="6" meanSpeed="0.00" meanTimeLoss="100.00" meanOccupancy="64.41" maxOccupancy="64.41" meanMaxJamLengthInVehicles="6.00" meanMaxJamLengthInMeters="35.12" maxJamLengthInVehicles="6" maxJamLengthInMeters="35.12" jamLengthInVehiclesSum="600" jamLengthInMetersSum="3511.89" meanHaltingDuration="303.33" maxHaltingDuration="307.00" haltingDurationSum="1820.00" meanIntervalHaltingDuration="100.00" maxIntervalHaltingDuration="100.00" intervalHaltingDurationSum="600.00" startedHalts="0.00" meanVehicleNumber="6.00" maxVehicleNumber="6" />
   <interval begin="22800.00" end="22900.00" id="e2_L239_3_0" sampledSeconds="600.00" nVehEntered="0" nVehLeft="0" nVehSeen="6" meanSpeed="0.00" meanTimeLoss="100.00" meanOccupancy="64.41" maxOccupancy="64.41" meanMaxJamLengthInVehicles="6.00" meanMaxJamLengthInMeters="