<?xml version="1.0" encoding="UTF-8"?>

<!-- generated on Sun Feb 17 15:57:00 2019 by 
<configuration xmlns:xsi="http://www.w3.org/2001/XMLSchema-instance" xsi:noNamespaceSchemaLocation="http://sumo.dlr.de/xsd/Configuration.xsd">

    <input>
        <net-file value="/home/sda/Documents/sumo-sathorn-ray/models/sathorn-morning/sathorn_w_fixed_20160404.net.xml"/>
        <route-files value="/home/sda/Documents/sumo-sathorn-ray/models/sathorn-morning/Great-route/sathorn_w_20160422edit2.rou.xml"/>
        <additional-files value="/home/sda/Documents/sumo-sathorn-ray/models/sathorn-morning/sathon_wide_tls_20160418_edited.add.xml,/home/sda/Documents/sumo-sathorn-ray/detectors/sathorn_w_detectors.add.xml"/>
    </input>

    <time>
        <begin value="21600"/>
        <end value="32400"/>
        <step-length value="1"/>
    </time>

    <processing>
        <no-internal-links value="true"/>
        <ignore-junction-blocker value="-1"/>
        <time-to-teleport value="-1"/>
        <eager-insert value="true"/>
        <time-to-impatience value="300"/>
    </processing>

    <report>
        <no-warnings value="true"/>
    </report>

    <random_number>
        <random value="false"/>
        <seed value="20"/>
    </random_number>

    <gui_only>
        <gui-settings-file value="/home/sda/Documents/sumo-sathorn-ray/gui-settings/gui-settings-file-surasak.xml"/>
        <quit-on-end value="true"/>
        <start value="true"/>
        <tracker-interval value="1"/>
    </gui_only>

</configuration>
-->

<detector xmlns:xsi="http://www.w3.org/2001/XMLSchema-instance" xsi:noNamespaceSchemaLocation="http://sumo.dlr.de/xsd/det_e2_file.xsd">
   <interval begin="21600.00" end="21700.00" id="e2_L193#2_2_1" sampledSeconds="0.00" nVehEntered="0" nVehLeft="0" nVehSeen="0" meanSpeed="-1.00" meanTimeLoss="-1.00" meanOccupancy="0.00" maxOccupancy="0.00" meanMaxJamLengthInVehicles="0.00" meanMaxJamLengthInMeters="0.00" maxJamLengthInVehicles="0" maxJamLengthInMeters="0.00" jamLengthInVehiclesSum="0" jamLengthInMetersSum="0.00" meanHaltingDuration="0.00" maxHaltingDuration="0.00" haltingDurationSum="0.00" meanIntervalHaltingDuration="0.00" maxIntervalHaltingDuration="0.00" intervalHaltingDurationSum="0.00" startedHalts="0.00" meanVehicleNumber="0.00" maxVehicleNumber="0" />
   <interval begin="21700.00" end="21800.00" id="e2_L193#2_2_1" sampledSeconds="0.00" nVehEntered="0" nVehLeft="0" nVehSeen="0" meanSpeed="-1.00" meanTimeLoss="-1.00" meanOccupancy="0.00" maxOccupancy="0.00" meanMaxJamLengthInVehicles="0.00" meanMaxJamLengthInMeters="0.00" maxJamLengthInVehicles="0" maxJamLengthInMeters="0.00" jamLengthInVehiclesSum="0" jamLengthInMetersSum="0.00" meanHaltingDuration="0.00" maxHaltingDuration="0.00" haltingDurationSum="0.00" meanIntervalHaltingDuration="0.00" maxIntervalHaltingDuration="0.00" intervalHaltingDurationSum="0.00" startedHalts="0.00" meanVehicleNumber="0.00" maxVehicleNumber="0" />
   <interval begin="21800.00" end="21900.00" id="e2_L193#2_2_1" sampledSeconds="40.87" nVehEntered="11" nVehLeft="11" nVehSeen="11" meanSpeed="11.73" meanTimeLoss="0.23" meanOccupancy="1.78" maxOccupancy="14.06" meanMaxJamLengthInVehicles="0.00" meanMaxJamLengthInMeters="0.00" maxJamLengthInVehicles="0" maxJamLengthInMeters="0.00" jamLengthInVehiclesSum="0" jamLengthInMetersSum="0.00" meanHaltingDuration="0.00" maxHaltingDuration="0.00" haltingDurationSum="0.00" meanIntervalHaltingDuration="0.00" maxIntervalHaltingDuration="0.00" intervalHaltingDurationSum="0.00" startedHalts="0.00" meanVehicleNumber="0.47" maxVehicleNumber="3" />
   <interval begin="21900.00" end="22000.00" id="e2_L193#2_2_1" sampledSeconds="48.40" nVehEntered="10" nVehLeft="10" nVehSeen="10" meanSpeed="11.76" meanTimeLoss="0.29" meanOccupancy="2.23" maxOccupancy="14.06" meanMaxJamLengthInVehicles="0.00" meanMaxJamLengthInMeters="0.00" maxJamLengthInVehicles="0" maxJamLengthInMeters="0.00" jamLengthInVehiclesSum="0" jamLengthInMetersSum="0.00" meanHaltingDuration="0.00" maxHaltingDuration="0.00" haltingDurationSum="0.00" meanIntervalHaltingDuration="0.00" maxIntervalHaltingDuration="0.00" intervalHaltingDurationSum="0.00" startedHalts="0.00" meanVehicleNumber="0.54" maxVehicleNumber="3" />
   <interval begin="22000.00" end="22100.00" id="e2_L193#2_2_1" sampledSeconds="75.20" nVehEntered="18" nVehLeft="16" nVehSeen="18" meanSpeed="11.33" meanTimeLoss="0.39" meanOccupancy="3.55" maxOccupancy="23.44" meanMaxJamLengthInVehicles="0.00" meanMaxJamLengthInMeters="0.00" maxJamLengthInVehicles="0" maxJamLengthInMeters="0.00" jamLengthInVehiclesSum="0" jamLengthInMetersSum="0.00" meanHaltingDuration="0.00" maxHaltingDuration="0.00" haltingDurationSum="0.00" meanIntervalHaltingDuration="0.00" maxIntervalHaltingDuration="0.00" intervalHaltingDurationSum="0.00" startedHalts="0.00" meanVehicleNumber="0.84" maxVehicleNumber="5" />
   <interval begin="22100.00" end="22200.00" id="e2_L193#2_2_1" sampledSeconds="109.04" nVehEntered="26" nVehLeft="28" nVehSeen="28" meanSpeed="11.47" meanTimeLoss="0.31" meanOccupancy="4.85" maxOccupancy="23.44" meanMaxJamLengthInVehicles="0.00" meanMaxJamLengthInMeters="0.00" maxJamLengthInVehicles="0" maxJamLengthInMeters="0.00" jamLengthInVehiclesSum="0" jamLengthInMetersSum="0.00" meanHaltingDuration="0.00" maxHaltingDuration="0.00" haltingDurationSum="0.00" meanIntervalHaltingDuration="0.00" maxIntervalHaltingDuration="0.00" intervalHaltingDurationSum="0.00" startedHalts="0.00" meanVehicleNumber="1.21" maxVehicleNumber="5" />
   <interval begin="22200.00" end="22300.00" id="e2_L193#2_2_1" sampledSeconds="175.33" nVehEntered="31" nVehLeft="25" nVehSeen="31" meanSpeed="7.53" meanTimeLoss="2.24" meanOccupancy="8.06" maxOccupancy="30.18" meanMaxJamLengthInVehicles="0.42" meanMaxJamLengthInMeters="2.63" maxJamLengthInVehicles="5" maxJamLengthInMeters="32.71" jamLengthInVehiclesSum="42" jamLengthInMetersSum="263.12" meanHaltingDuration="9.40" maxHaltingDuration="15.00" haltingDurationSum="47.00" meanIntervalHaltingDuration="9.40" maxIntervalHaltingDuration="15.00" intervalHaltingDurationSum="47.00" startedHalts="5.00" meanVehicleNumber="1.92" maxVehicleNumber="7" />
   <interval begin="22300.00" end="22400.00" id="e2_L193#2_2_1" sampledSeconds="599.08" nVehEntered="15" nVehLeft="11" nVehSeen="21" meanSpeed="1.02" meanTimeLoss="26.20" meanOccupancy="27.65" maxOccupancy="44.74" meanMaxJamLengthInVehicles="5.26" meanMaxJamLengthInMeters="35.51" maxJamLengthInVehicles="8" maxJamLengthInMeters="56.91" jamLengthInVehiclesSum="526" jamLengthInMetersSum="3550.65" meanHaltingDuration="55.75" maxHaltingDuration="110.00" haltingDurationSum="446.00" meanIntervalHaltingDuration="53.50" maxIntervalHaltingDuration="100.00" intervalHaltingDurationSum="428.00" startedHalts="6.00" meanVehicleNumber="6.04" maxVehicleNumber="10" />
   <interval begin="22400.00" end="22500.00" id="e2_L193#2_2_1" sampledSeconds="1418.75" nVehEntered="6" nVehLeft="1" nVehSeen="16" meanSpeed="0.10" meanTimeLoss="87.97" meanOccupancy="63.53" maxOccupancy="66.14" meanMaxJamLengthInVehicles="13.88" meanMaxJamLengthInMeters="91.86" maxJamLengthInVehicles="15" maxJamLengthInMeters="98.39" jamLengthInVehiclesSum="1388" jamLengthInMetersSum="9185.74" meanHaltingDuration="122.73" maxHaltingDuration="210.00" haltingDurationSum="1841.00" meanIntervalHaltingDuration="93.00" maxIntervalHaltingDuration="100.00" intervalHaltingDurationSum="1395.00" startedHalts="7.00" meanVehicleNumber="14.22" maxVehicleNumber="15" />
   <interval begin="22500.00" end="22600.00" id="e2_L193#2_2_1" sampledSeconds="1500.00" nVehEntered="0" nVehLeft="0" nVehSeen="15" meanSpeed="0.00" meanTimeLoss="100.00" meanOccupancy="66.14" maxOccupancy="66.14" meanMaxJamLengthInVehicles="15.00" meanMaxJamLengthInMeters="98.39" maxJamLengthInVehicles="15" maxJamLengthInMeters="98.39" jamLengthInVehiclesSum="1500" jamLengthInMetersSum="9838.64" meanHaltingDuration="222.73" maxHaltingDuration="310.00" haltingDurationSum="3341.00" meanIntervalHaltingDuration="100.00" maxIntervalHaltingDuration="100.00" intervalHaltingDurationSum="1500.00" startedHalts="0.00" meanVehicleNumber="15.00" maxVehicleNumber="15" />
   <interval begin="22600.00" end="22700.00" id="e2_L193#2_2_1" sampledSeconds="1500.00" nVehEntered="0" nVehLeft="0" nVehSeen="15" meanSpeed="0.00" meanTimeLoss="100.00" meanOccupancy="66.14" maxOccupancy="66.14" meanMaxJamLengthInVehicles="15.00" meanMaxJamLengthInMeters="98.39" maxJamLengthInVehicles="15" maxJamLengthInMeters="98.39" jamLengthInVehiclesSum="1500" jamLengthInMetersSum="9838.64" meanHaltingDuration="322.73" maxHaltingDuration="410.00" haltingDurationSum="4841.00" meanIntervalHaltingDuration="100.00" maxIntervalHaltingDuration="100.00" intervalHaltingDurationSum="1500.00" startedHalts="0.00" meanVehicleNumber="15.00" maxVehicleNumber="15" />
   <interval begin="22700.00" end="22800.00" id="e2_L193#2_2_1" sampledSeconds="1500.00" nVehEntered="0" nVehLeft="0" nVehSeen="15" meanSpeed="0.00" meanTimeLoss="100.00" meanOccupancy="66.14" maxOccupancy="66.14" meanMaxJamLengthInVehicles="15.00" meanMaxJamLengthInMeters="98.39" maxJamLengthInVehicles="15" maxJamLengthInMeters="98.39" jamLengthInVehiclesSum="1500" jamLengthInMetersSum="9838.64" meanHaltingDuration="422.73" maxHaltingDuration="510.00" haltingDurationSum="6341.00" meanIntervalHaltingDuration="100.00" maxIntervalHaltingDuration="100.00" intervalHaltingDurationSum="1500.00" startedHalts="0.00" meanVehicleNumber="15.00" maxVehicleNumber="15" />
   <interval begin="22800.00" end="22900.00" id="e2_L193#2_2_1" sampledSeconds="1500.00" nVehEntered="0" nVehLeft="0" nVehSeen="15" meanSpeed="0.00" meanTimeLoss="100.00" meanOccupancy="66.14" maxOccupancy="66.14" meanMaxJamLengthInVehicles="15.00" meanMaxJamLengthInMeters="98.39" maxJamLengthInVehicles="15" maxJamLengthInMeters="98.39" jamLengthInVehiclesSum="1500" jamLengthInMetersSum="9838.64" meanHaltingDuration="522.73" maxHaltingDuration="610.00" haltingDurationSum="7841.00" meanIntervalHaltingDuration="100.00" maxIntervalHaltingDuration="100.00" intervalHaltingDurationSum="1500.00" startedHalts="0.00" meanVehicleNumber="15.00" maxVehicleNumber="15" />
   <interval begin="22900.00" end="23000.00" id="e2_L193#2_2_1" sampledSeconds="1500.00" nVehEntered="0" nVehLeft="0" nVehSeen="15" meanSpeed="0.00" meanTimeLoss="100.00" meanOccupancy="66.14" maxOccupancy="66.14" meanMaxJamLengthInVehicles="15.00" meanMaxJamLengthInMeters="98.39" maxJamLengthInVehicles="15" maxJamLengthInMeters="98.39" jamLengthInVehiclesSum="1500" jamLengthInMetersSum="9838.64" meanHaltingDuration="622.73" maxHaltingDuration="710.00" haltingDurationSum="9341.00" meanIntervalHaltingDuration="100.00" maxIntervalHaltingDuration="100.00" intervalHaltingDurationSum="1500.00" startedHalts="0.00" meanVehicleNumber="15.00" maxVehicleNumber="15" />
   <interval begin="23000.00" end="23100.00" id="e2_L193#2_2_1" sampledSeconds="1500.00" nVehEntered="0" nVehLeft="0" nVehSeen="15" meanSpeed="0.00" meanTimeLoss="100.00" meanOccupancy="66.14" maxOccupancy="66.14" meanMaxJamLengthInVehicles="15.00" meanMaxJamLengthInMeters="98.39" maxJamLengthInVehicles="15" maxJamLengthInMeters="98.39" jamLengthInVehiclesSum="1500" jamLengthInMetersSum="9838.64" meanHaltingDuration="722.73" maxHaltingDuration="810.00" haltingDurationSum="10841.00" meanIntervalHaltingDuration="100.00" maxIntervalHaltingDuration="100.00" intervalHaltingDurationSum="1500.00" startedHalts="0.00" meanVehicleNumber="15.00" maxVehicleNumber="15" />
   <interval begin="23100.00" end="23200.00" id="e2_L193#2_2_1" sampledSeconds="1500.00" nVehEntered="0" nVehLeft="0" nVehSeen="15" meanSpeed="0.00" meanTimeLoss="100.00" meanOccupancy="66.14" maxOccupancy="66.14" meanMaxJamLengthInVehicles="15.00" meanMaxJamLengthInMeters="98.39" maxJamLengthInVehicles="15" maxJamLengthInMeters="98.39" jamLengthInVehiclesSum="1500" jamLengthInMetersSum="9838.64" meanHaltingDuration="822.73" maxHaltingDuration="910.00" haltingDurationSum="12341.00" meanIntervalHaltingDuration="100.00" maxIntervalHaltingDuration="100.00" intervalHaltingDurationSum="1500.00" startedHalts="0.00" meanVehicleNumber="15.00" maxVehicleNumber="15" />
   <interval begin="23200.00" end="23300.00" id="e2_L193#2_2_1" sampledSeconds="1500.00" nVehEntered="0" nVehLeft="0" nVehSeen="15" meanSpeed="0.00" meanTimeLoss="100.00" meanOccupancy="66.14" maxOccupancy="66.14" meanMaxJamLengthInVehicles="15.00" meanMaxJamLengthInMeters="98.39" maxJamLengthInVehicles="15" maxJamLengthInMeters="98.39" jamLengthInVehiclesSum="1500" jamLengthInMetersSum="9838.64" meanHaltingDuration="922.73" maxHaltingDuration="1010.00" haltingDurationSum="13841.00" meanIntervalHaltingDuration="100.00" maxIntervalHaltingDuration="100.00" intervalHaltingDurationSum="1500.00" startedHalts="0.00" meanVehicleNumber="15.00" maxVehicleNumber="15" />
   <interval begin="23300.00" end="23400.00" id="e2_L193#2_2_1" sampledSeconds="1500.00" nVehEntered="0" nVehLeft="0" nVehSeen="15" meanSpeed="0.00" meanTimeLoss="100.00" meanOccupancy="66.14" maxOccupancy="66.14" meanMaxJamLengthInVehicles="15.00" meanMaxJamLengthInMeters="98.39" maxJamLengthInVehicles="15" maxJamLengthInMeters="98.39" jamLengthInVehiclesSum="1500" jamLengthInMetersSum="9838.64" meanHaltingDuration="1022.73" maxHaltingDuration="1110.00" haltingDurationSum="15341.00" meanIntervalHaltingDuration="100.00" maxIntervalHaltingDuration="100.00" intervalHaltingDurationSum="1500.00" startedHalts="0.00" meanVehicleNumber="15.00" maxVehicleNumber="15" />
   <interval begin="23400.00" end="23500.00" id="e2_L193#2_2_1" sampledSeconds="1495.99" nVehEntered="0" nVehLeft="1" nVehSeen="15" meanSpeed="0.01" meanTimeLoss="99.61" meanOccupancy="65.85" maxOccupancy="66.14" meanMaxJamLengthInVehicles="14.93" meanMaxJamLengthInMeters="98.16" maxJamLengthInVehicles="15" maxJamLengthInMeters="100.88" jamLengthInVehiclesSum="1493" jamLengthInMetersSum="9815.93" meanHaltingDuration="1052.19" maxHaltingDuration="1205.00" haltingDurationSum="16835.00" meanIntervalHaltingDuration="93.38" maxIntervalHaltingDuration="100.00" intervalHaltingDurationSum="1494.00" startedHalts="1.00" meanVehicleNumber="14.96" maxVehicleNumber="15" />
   <interval begin="23500.00" end="23600.00" id="e2_L193#2_2_1" sampledSeconds="1443.86" nVehEntered="3" nVehLeft="2" nVehSeen="17" meanSpeed="0.13" meanTimeLoss="84.04" meanOccupancy="64.01" maxOccupancy="65.75" meanMaxJamLengthInVehicles="13.26" meanMaxJamLengthInMeters="88.35" maxJamLengthInVehicles="15" maxJamLengthInMeters="98.56" jamLengthInVehiclesSum="1399" jamLengthInMetersSum="9297.69" meanHaltingDuration="433.59" maxHaltingDuration="1200.00" haltingDurationSum="14742.00" meanIntervalHaltingDuration="40.94" maxIntervalHaltingDuration="100.00" intervalHaltingDurationSum="1392.00" startedHalts="22.00" meanVehicleNumber="14.46" maxVehicleNumber="15" />
   <interval begin="23600.00" end="23700.00" id="e2_L193#2_2_1" sampledSeconds="1500.00" nVehEntered="0" nVehLeft="0" nVehSeen="15" meanSpeed="0.00" meanTimeLoss="100.00" meanOccupancy="65.75" maxOccupancy="65.75" meanMaxJamLengthInVehicles="15.00" meanMaxJamLengthInMeters="98.39" maxJamLengthInVehicles="15" maxJamLengthInMeters="98.39" jamLengthInVehiclesSum="1500" jamLengthInMetersSum="9838.67" meanHaltingDuration="329.73" maxHaltingDuration="1279.00" haltingDurationSum="4946.00" meanIntervalHaltingDuration="100.00" maxIntervalHaltingDuration="100.00" intervalHaltingDurationSum="1500.00" startedHalts="0.00" meanVehicleNumber="15.00" maxVehicleNumber="15" />
   <interval begin="23700.00" end="23800.00" id="e2_L193#2_2_1" sampledSeconds="1500.00" nVehEntered="0" nVehLeft="0" nVehSeen="15" meanSpeed="0.00" meanTimeLoss="100.00" meanOccupancy="65.75" maxOccupancy="65.75" meanMaxJamLengthInVehicles="15.00" meanMaxJamLengthInMeters="98.39" maxJamLengthInVehicles="15" maxJamLengthInMeters="98.39" jamLengthInVehiclesSum="1500" jamLengthInMetersSum="9838.67" meanHaltingDuration="429.73" maxHaltingDuration="1379.00" haltingDurationSum="6446.00" meanIntervalHaltingDuration="100.00" maxIntervalHaltingDuration="100.00" intervalHaltingDurationSum="1500.00" startedHalts="0.00" meanVehicleNumber="15.00" maxVehicleNumber="15" />
   <interval begin="23800.00" end="23900.00" id="e2_L193#2_2_1" sampledSeconds="1491.41" nVehEntered="0" nVehLeft="1" nVehSeen="15" meanSpeed="0.04" meanTimeLoss="99.13" meanOccupancy="65.08" maxOccupancy="65.75" meanMaxJamLengthInVehicles="14.92" meanMaxJamLengthInMeters="98.62" maxJamLengthInVehicles="15" maxJamLengthInMeters="103.42" jamLengthInVehiclesSum="1492" jamLengthInMetersSum="9862.25" meanHaltingDuration="539.43" maxHaltingDuration="1479.00" haltingDurationSum="7552.00" meanIntervalHaltingDuration="100.00" maxIntervalHaltingDuration="100.00" intervalHaltingDurationSum="1400.00" startedHalts="0.00" meanVehicleNumber="14.92" maxVehicleNumber="15" />
   <interval begin="23900.00" end="24000.00" id="e2_L193#2_2_1" sampledSeconds="1400.00" nVehEntered="0" nVehLeft="0" nVehSeen="14" meanSpeed="0.02" meanTimeLoss="99.85" meanOccupancy="60.34" maxOccupancy="60.80" meanMaxJamLengthInVehicles="14.00" meanMaxJamLengthInMeters="99.27" maxJamLengthInVehicles="14" maxJamLengthInMeters="99.29" jamLengthInVehiclesSum="1400" jamLengthInMetersSum="9927.18" meanHaltingDuration="639.43" maxHaltingDuration="1579.00" haltingDurationSum="8952.00" meanIntervalHaltingDuration="100.00" maxIntervalHaltingDuration="100.00" intervalHaltingDurationSum="1400.00" startedHalts="0.00" meanVehicleNumber="14.00" maxVehicleNumber="14" />
   <interval begin="24000.00" end="24100.00" id="e2_L193#2_2_1" sampledSeconds="1368.25" nVehEntered="2" nVehLeft="2" nVehSeen="16" meanSpeed="0.14" meanTimeLoss="84.59" meanOccupancy="59.35" maxOccupancy="61.06" meanMaxJamLengthInVehicles="12.65" meanMaxJamLengthInMeters="90.20" maxJamLengthInVehicles="14" maxJamLengthInMeters="101.14" jamLengthInVehiclesSum="1324" jamLengthInMetersSum="9379.92" meanHaltingDuration="295.94" maxHaltingDuration="1618.00" haltingDurationSum="9766.00" meanIntervalHaltingDuration="39.55" maxIntervalHaltingDuration="66.00" intervalHaltingDurationSum="1305.00" startedHalts="21.00" meanVehicleNumber="13.70" maxVehicleNumber="14" />
   <interval begin="24100.00" end="24200.00" id="e2_L193#2_2_1" sampledSeconds="1383.53" nVehEntered="1" nVehLeft="2" nVehSeen="15" meanSpeed="0.03" meanTimeLoss="92.02" meanOccupancy="59.97" maxOccupancy="61.06" meanMaxJamLengthInVehicles="13.68" meanMaxJamLengthInMeters="97.22" maxJamLengthInVehicles="14" maxJamLengthInMeters="103.39" jamLengthInVehiclesSum="1380" jamLengthInMetersSum="9797.43" meanHaltingDuration="142.77" maxHaltingDuration="165.00" haltingDurationSum="1856.00" meanIntervalHaltingDuration="92.38" maxIntervalHaltingDuration="100.00" intervalHaltingDurationSum="1201.00" startedHalts="1.00" meanVehicleNumber="13.84" maxVehicleNumber="14" />
   <interval begin="24200.00" end="24300.00" id="e2_L193#2_2_1" sampledSeconds="1467.14" nVehEntered="2" nVehLeft="0" nVehSeen="15" meanSpeed="0.05" meanTimeLoss="97.40" meanOccupancy="64.78" maxOccupancy="66.14" meanMaxJamLengthInVehicles="13.75" meanMaxJamLengthInMeters="91.13" maxJamLengthInVehicles="15" maxJamLengthInMeters="98.39" jamLengthInVehiclesSum="1433" jamLengthInMetersSum="9461.97" meanHaltingDuration="113.97" maxHaltingDuration="265.00" haltingDurationSum="3305.00" meanIntervalHaltingDuration="49.97" maxIntervalHaltingDuration="100.00" intervalHaltingDurationSum="1449.00" startedHalts="16.00" meanVehicleNumber="14.68" maxVehicleNumber="15" />
   <interval begin="24300.00" end="24400.00" id="e2_L193#2_2_1" sampledSeconds="1500.00" nVehEntered="0" nVehLeft="0" nVehSeen="15" meanSpeed="0.00" meanTimeLoss="100.00" meanOccupancy="66.14" maxOccupancy="66.14" meanMaxJamLengthInVehicles="15.00" meanMaxJamLengthInMeters="98.39" maxJamLengthInVehicles="15" maxJamLengthInMeters="98.39" jamLengthInVehiclesSum="1500" jamLengthInMetersSum="9838.66" meanHaltingDuration="234.93" maxHaltingDuration="365.00" haltingDurationSum="3524.00" meanIntervalHaltingDuration="100.00" maxIntervalHaltingDuration="100.00" intervalHaltingDurationSum="1500.00" startedHalts="0.00" meanVehicleNumber="15.00" maxVehicleNumber="15" />
   <interval begin="24400.00" end="24500.00" id="e2_L193#2_2_1" sampledSeconds="1500.00" nVehEntered="0" nVehLeft="0" nVehSeen="15" meanSpeed="0.00" meanTimeLoss="100.00" meanOccupancy="66.14" maxOccupancy="66.14" meanMaxJamLengthInVehicles="15.00" meanMaxJamLengthInMeters="98.39" maxJamLengthInVehicles="15" maxJamLengthInMeters="98.39" jamLengthInVehiclesSum="1500" jamLengthInMetersSum="9838.66" meanHaltingDuration="334.93" maxHaltingDuration="465.00" haltingDurationSum="5024.00" meanIntervalHaltingDuration="100.00" maxIntervalHaltingDuration="100.00" intervalHaltingDurationSum="1500.00" startedHalts="0.00" meanVehicleNumber="15.00" maxVehicleNumber="15" />
   <interval begin="24500.00" end="24600.00" id="e2_L193#2_2_1" sampledSeconds="1500.00" nVehEntered="0" nVehLeft="0" nVehSeen="15" meanSpeed="0.00" meanTimeLoss="100.00" meanOccupancy="66.14" maxOccupancy="66.14" meanMaxJamLengthInVehicles="15.00" meanMaxJamLengthInMeters="98.39" maxJamLengthInVehicles="15" maxJamLengthInMeters="98.39" jamLengthInVehiclesSum="1500" jamLengthInMetersSum="9838.66" meanHaltingDuration="434.93" maxHaltingDuration="565.00" haltingDurationSum="6524.00" meanIntervalHaltingDuration="100.00" maxIntervalHaltingDuration="100.00" intervalHaltingDurationSum="1500.00" startedHalts="0.00" meanVehicleNumber="15.00" maxVehicleNumber="15" />
   <interval begin="24600.00" end="24700.00" id="e2_L193#2_2_1" sampledSeconds="1500.00" nVehEntered="0" nVehLeft="0" nVehSeen="15" meanSpeed="0.00" meanTimeLoss="100.00" meanOccupancy="66.14" maxOccupancy="66.14" meanMaxJamLengthInVehicles="15.00" meanMaxJamLengthInMeters="98.39" maxJamLengthInVehicles="15" maxJamLengthInMeters="98.39" jamLengthInVehiclesSum="1500" jamLengthInMetersSum="9838.66" meanHaltingDuration="534.93" maxHaltingDuration="665.00" haltingDurationSum="8024.00" meanIntervalHaltingDuration="100.00" maxIntervalHaltingDuration="100.00" intervalHaltingDurationSum="1500.00" startedHalts="0.00" meanVehicleNumber="15.00" maxVehicleNumber="15" />
   <interval begin="24700.00" end="24800.00" id="e2_L193#2_2_1" sampledSeconds="1500.00" nVehEntered="0" nVehLeft="0" nVehSeen="15" meanSpeed="0.00" meanTimeLoss="100.00" meanOccupancy="66.14" maxOccupancy="66.14" meanMaxJamLengthInVehicles="15.00" meanMaxJamLengthInMeters="98.39" maxJamLengthInVehicles="15" maxJamLengthInMeters="98.39" jamLengthInVehiclesSum="1500" jamLengthInMetersSum="9838.66" meanHaltingDuration="634.93" maxHaltingDuration="765.00" haltingDurationSum="9524.00" meanIntervalHaltingDuration="100.00" maxIntervalHaltingDuration="100.00" intervalHaltingDurationSum="1500.00" startedHalts="0.00" meanVehicleNumber="15.00" maxVehicleNumber="15" />
   <interval begin="24800.00" end="24900.00" id="e2_L193#2_2_1" sampledSeconds="1500.00" nVehEntered="0" nVehLeft="0" nVehSeen="15" meanSpeed="0.01" meanTimeLoss="99.93" meanOccupancy="66.11" maxOccupancy="66.32" meanMaxJamLengthInVehicles="15.00" meanMaxJamLengthInMeters="99.13" maxJamLengthInVehicles="15" maxJamLengthInMeters="99.29" jamLengthInVehiclesSum="1500" jamLengthInMetersSum="9912.75" meanHaltingDuration="734.93" maxHaltingDuration="865.00" haltingDurationSum="11024.00" meanIntervalHaltingDuration="100.00" maxIntervalHaltingDuration="100.00" intervalHaltingDurationSum="1500.00" startedHalts="0.00" meanVehicleNumber="15.00" maxVehicleNumber="15" />
   <interval begin="24900.00" end="25000.00" id="e2_L193#2_2_1" sampledSeconds="1500.00" nVehEntered="0" nVehLeft="0" nVehSeen="15" meanSpeed="0.00" meanTimeLoss="100.00" meanOccupancy="66.32" maxOccupancy="66.32" meanMaxJamLengthInVehicles="15.00" meanMaxJamLengthInMeters="99.29" maxJamLengthInVehicles="15" maxJamLengthInMeters="99.29" jamLengthInVehiclesSum="1500" jamLengthInMetersSum="9928.65" meanHaltingDuration="834.93" maxHaltingDuration="965.00" haltingDurationSum="12524.00" meanIntervalHaltingDuration="100.00" maxIntervalHaltingDuration="100.00" intervalHaltingDurationSum="1500.00" startedHalts="0.00" meanVehicleNumber="15.00" maxVehicleNumber="15" />
   <interval begin="25000.00" end="25100.00" id="e2_L193#2_2_1" sampledSeconds="1500.00" nVehEntered="0" nVehLeft="0" nVehSeen="15" meanSpeed="0.00" meanTimeLoss="100.00" meanOccupancy="66.32" maxOccupancy="66.32" meanMaxJamLengthInVehicles="15.00" meanMaxJamLengthInMeters="99.29" maxJamLengthInVehicles="15" maxJamLengthInMeters="99.29" jamLengthInVehiclesSum="1500" jamLengthInMetersSum="9928.65" meanHaltingDuration="934.93" maxHaltingDuration="1065.00" haltingDurationSum="14024.00" meanIntervalHaltingDuration="100.00" maxIntervalHaltingDuration="100.00" intervalHaltingDurationSum="1500.00" startedHalts="0.00" meanVehicleNumber="15.00" maxVehicleNumber="15" />
   <interval begin="25100.00" end="25200.00" id="e2_L193#2_2_1" sampledSeconds="1500.00" nVehEntered="0" nVehLeft="0" nVehSeen="15" meanSpeed="0.00" meanTimeLoss="100.00" meanOccupancy="66.32" maxOccupancy="66.32" meanMaxJamLengthInVehicles="15.00" meanMaxJamLengthInMeters="99.29" maxJamLengthInVehicles="15" maxJamLengthInMeters="99.29" jamLengthInVehiclesSum="1500" jamLengthInMetersSum="9928.65" meanHaltingDuration="1034.93" maxHaltingDuration="1165.00" haltingDurationSum="15524.00" meanIntervalHaltingDuration="100.00" maxIntervalHaltingDuration="100.00" intervalHaltingDurationSum="1500.00" startedHalts="0.00" meanVehicleNumber="15.00" maxVehicleNumber="15" />
   <interval begin="25200.00" end="25300.00" id="e2_L193#2_2_1" sampledSeconds="1500.00" nVehEntered="0" nVehLeft="0" nVehSeen="15" meanSpeed="0.00" meanTimeLoss="100.00" meanOccupancy="66.32" maxOccupancy="66.32" meanMaxJamLengthInVehicles="15.00" meanMaxJamLengthInMeters="99.29" maxJamLengthInVehicles="15" maxJamLengthInMeters="99.29" jamLengthInVehiclesSum="1500" jamLengthInMetersSum="9928.65" meanHaltingDuration="1134.93" maxHaltingDuration="1265.00" haltingDurationSum="17024.00" meanIntervalHaltingDuration="100.00" maxIntervalHaltingDuration="100.00" intervalHaltingDurationSum="1500.00" startedHalts="0.00" meanVehicleNumber="15.00" maxVehicleNumber="15" />
   <interval begin="25300.00" end="25400.00" id="e2_L193#2_2_1" sampledSeconds="1500.00" nVehEntered="0" nVehLeft="0" nVehSeen="15" meanSpeed="0.00" meanTimeLoss="100.00" meanOccupancy="66.32" maxOccupancy="66.32" meanMaxJamLengthInVehicles="15.00" meanMaxJamLengthInMeters="99.29" maxJamLengthInVehicles="15" maxJamLengthInMeters="99.29" jamLengthInVehiclesSum="1500" jamLengthInMetersSum="9928.65" meanHaltingDuration="1234.93" maxHaltingDuration="1365.00" haltingDurationSum="18524.00" meanIntervalHaltingDuration="100.00" maxIntervalHaltingDuration="100.00" intervalHaltingDurationSum="1500.00" startedHalts="0.00" meanVehicleNumber="15.00" maxVehicleNumber="15" />
   <interval begin="25400.00" end="25500.00" id="e2_L193#2_2_1" sampledSeconds="1488.10" nVehEntered="0" nVehLeft="2" nVehSeen="15" meanSpeed="0.04" meanTimeLoss="98.93" meanOccupancy="65.65" maxOccupancy="66.32" meanMaxJamLengthInVehicles="14.89" meanMaxJamLengthInMeters="99.40" maxJamLengthInVehicles="15" maxJamLengthInMeters="104.08" jamLengthInVehiclesSum="1489" jamLengthInMetersSum="9939.63" meanHaltingDuration="1328.85" maxHaltingDuration="1464.00" haltingDurationSum="17275.00" meanIntervalHaltingDuration="100.00" maxIntervalHaltingDuration="100.00" intervalHaltingDurationSum="1300.00" startedHalts="0.00" meanVehicleNumber="14.89" maxVehicleNumber="15" />
   <interval begin="25500.00" end="25600.00" id="e2_L193#2_2_1" sampledSeconds="1286.41" nVehEntered="10" nVehLeft="9" nVehSeen="23" meanSpeed="0.55" meanTimeLoss="53.48" meanOccupancy="58.23" maxOccupancy="65.62" meanMaxJamLengthInVehicles="10.01" meanMaxJamLengthInMeters="71.81" maxJamLengthInVehicles="14" maxJamLengthInMeters="101.83" jamLengthInVehiclesSum="1090" jamLengthInMetersSum="7701.03" meanHaltingDuration="281.15" maxHaltingDuration="1473.00" haltingDurationSum="16869.00" meanIntervalHaltingDuration="17.63" maxIntervalHaltingDuration="43.00" intervalHaltingDurationSum="1058.00" startedHalts="55.00" meanVehicleNumber="12.93" maxVehicleNumber="14" />
   <interval begin="25600.00" end="25700.00" id="e2_L193#2_2_1" sampledSeconds="1222.76" nVehEntered="11" nVehLeft="16" nVehSeen="25" meanSpeed="1.06" meanTimeLoss="44.77" meanOccupancy="53.78" maxOccupancy="66.14" meanMaxJamLengthInVehicles="7.80" meanMaxJamLengthInMeters="52.02" maxJamLengthInVehicles="15" maxJamLengthInMeters="100.02" jamLengthInVehiclesSum="832" jamLengthInMetersSum="5512.97" meanHaltingDuration="22.33" maxHaltingDuration="86.00" haltingDurationSum="1295.00" meanIntervalHaltingDuration="15.05" maxIntervalHaltingDuration="64.00" intervalHaltingDurationSum="873.00" startedHalts="46.00" meanVehicleNumber="12.36" maxVehicleNumber="15" />
   <interval begin="25700.00" end="25800.00" id="e2_L193#2_2_1" sampledSeconds="1178.61" nVehEntered="9" nVehLeft="5" nVehSeen="18" meanSpeed="0.50" meanTimeLoss="62.87" meanOccupancy="52.53" maxOccupancy="56.76" meanMaxJamLengthInVehicles="10.00" meanMaxJamLengthInMeters="76.55" maxJamLengthInVehicles="13" maxJamLengthInMeters="98.39" jamLengthInVehiclesSum="1000" jamLengthInMetersSum="7655.08" meanHaltingDuration="56.55" maxHaltingDuration="90.00" haltingDurationSum="1018.00" meanIntervalHaltingDuration="56.55" maxIntervalHaltingDuration="90.00" intervalHaltingDurationSum="1018.00" startedHalts="19.00" meanVehicleNumber="11.82" maxVehicleNumber="13" />