<?xml version="1.0" encoding="UTF-8"?>

<!-- generated on Sun Feb 17 15:57:00 2019 by 
<configuration xmlns:xsi="http://www.w3.org/2001/XMLSchema-instance" xsi:noNamespaceSchemaLocation="http://sumo.dlr.de/xsd/Configuration.xsd">

    <input>
        <net-file value="/home/sda/Documents/sumo-sathorn-ray/models/sathorn-morning/sathorn_w_fixed_20160404.net.xml"/>
        <route-files value="/home/sda/Documents/sumo-sathorn-ray/models/sathorn-morning/Great-route/sathorn_w_20160422edit2.rou.xml"/>
        <additional-files value="/home/sda/Documents/sumo-sathorn-ray/models/sathorn-morning/sathon_wide_tls_20160418_edited.add.xml,/home/sda/Documents/sumo-sathorn-ray/detectors/sathorn_w_detectors.add.xml"/>
    </input>

    <time>
        <begin value="21600"/>
        <end value="32400"/>
        <step-length value="1"/>
    </time>

    <processing>
        <no-internal-links value="true"/>
        <ignore-junction-blocker value="-1"/>
        <time-to-teleport value="-1"/>
        <eager-insert value="true"/>
        <time-to-impatience value="300"/>
    </processing>

    <report>
        <no-warnings value="true"/>
    </report>

    <random_number>
        <random value="false"/>
        <seed value="20"/>
    </random_number>

    <gui_only>
        <gui-settings-file value="/home/sda/Documents/sumo-sathorn-ray/gui-settings/gui-settings-file-surasak.xml"/>
        <quit-on-end value="true"/>
        <start value="true"/>
        <tracker-interval value="1"/>
    </gui_only>

</configuration>
-->

<detector xmlns:xsi="http://www.w3.org/2001/XMLSchema-instance" xsi:noNamespaceSchemaLocation="http://sumo.dlr.de/xsd/det_e2_file.xsd">
   <interval begin="21600.00" end="21700.00" id="e2_L40279_1_3" sampledSeconds="0.00" nVehEntered="0" nVehLeft="0" nVehSeen="0" meanSpeed="-1.00" meanTimeLoss="-1.00" meanOccupancy="0.00" maxOccupancy="0.00" meanMaxJamLengthInVehicles="0.00" meanMaxJamLengthInMeters="0.00" maxJamLengthInVehicles="0" maxJamLengthInMeters="0.00" jamLengthInVehiclesSum="0" jamLengthInMetersSum="0.00" meanHaltingDuration="0.00" maxHaltingDuration="0.00" haltingDurationSum="0.00" meanIntervalHaltingDuration="0.00" maxIntervalHaltingDuration="0.00" intervalHaltingDurationSum="0.00" startedHalts="0.00" meanVehicleNumber="0.00" maxVehicleNumber="0" />
   <interval begin="21700.00" end="21800.00" id="e2_L40279_1_3" sampledSeconds="13.92" nVehEntered="1" nVehLeft="1" nVehSeen="1" meanSpeed="11.61" meanTimeLoss="1.00" meanOccupancy="0.33" maxOccupancy="2.54" meanMaxJamLengthInVehicles="0.00" meanMaxJamLengthInMeters="0.00" maxJamLengthInVehicles="0" maxJamLengthInMeters="0.00" jamLengthInVehiclesSum="0" jamLengthInMetersSum="0.00" meanHaltingDuration="0.00" maxHaltingDuration="0.00" haltingDurationSum="0.00" meanIntervalHaltingDuration="0.00" maxIntervalHaltingDuration="0.00" intervalHaltingDurationSum="0.00" startedHalts="0.00" meanVehicleNumber="0.14" maxVehicleNumber="1" />
   <interval begin="21800.00" end="21900.00" id="e2_L40279_1_3" sampledSeconds="15.52" nVehEntered="1" nVehLeft="1" nVehSeen="1" meanSpeed="11.91" meanTimeLoss="0.73" meanOccupancy="0.38" maxOccupancy="2.54" meanMaxJamLengthInVehicles="0.00" meanMaxJamLengthInMeters="0.00" maxJamLengthInVehicles="0" maxJamLengthInMeters="0.00" jamLengthInVehiclesSum="0" jamLengthInMetersSum="0.00" meanHaltingDuration="0.00" maxHaltingDuration="0.00" haltingDurationSum="0.00" meanIntervalHaltingDuration="0.00" maxIntervalHaltingDuration="0.00" intervalHaltingDurationSum="0.00" startedHalts="0.00" meanVehicleNumber="0.16" maxVehicleNumber="1" />
   <interval begin="21900.00" end="22000.00" id="e2_L40279_1_3" sampledSeconds="127.77" nVehEntered="14" nVehLeft="12" nVehSeen="14" meanSpeed="8.92" meanTimeLoss="2.61" meanOccupancy="3.07" maxOccupancy="7.62" meanMaxJamLengthInVehicles="0.01" meanMaxJamLengthInMeters="0.05" maxJamLengthInVehicles="1" maxJamLengthInMeters="4.62" jamLengthInVehiclesSum="1" jamLengthInMetersSum="4.62" meanHaltingDuration="2.00" maxHaltingDuration="2.00" haltingDurationSum="2.00" meanIntervalHaltingDuration="2.00" maxIntervalHaltingDuration="2.00" intervalHaltingDurationSum="2.00" startedHalts="1.00" meanVehicleNumber="1.31" maxVehicleNumber="3" />
   <interval begin="22000.00" end="22100.00" id="e2_L40279_1_3" sampledSeconds="192.45" nVehEntered="18" nVehLeft="18" nVehSeen="20" meanSpeed="7.35" meanTimeLoss="3.93" meanOccupancy="4.66" maxOccupancy="10.16" meanMaxJamLengthInVehicles="0.01" meanMaxJamLengthInMeters="0.05" maxJamLengthInVehicles="1" maxJamLengthInMeters="4.62" jamLengthInVehiclesSum="1" jamLengthInMetersSum="4.62" meanHaltingDuration="1.17" maxHaltingDuration="2.00" haltingDurationSum="7.00" meanIntervalHaltingDuration="1.17" maxIntervalHaltingDuration="2.00" intervalHaltingDurationSum="7.00" startedHalts="6.00" meanVehicleNumber="1.96" maxVehicleNumber="4" />
   <interval begin="22100.00" end="22200.00" id="e2_L40279_1_3" sampledSeconds="188.62" nVehEntered="20" nVehLeft="19" nVehSeen="22" meanSpeed="7.12" meanTimeLoss="3.68" meanOccupancy="4.56" maxOccupancy="11.77" meanMaxJamLengthInVehicles="0.10" meanMaxJamLengthInMeters="0.45" maxJamLengthInVehicles="1" maxJamLengthInMeters="4.62" jamLengthInVehiclesSum="10" jamLengthInMetersSum="45.40" meanHaltingDuration="1.91" maxHaltingDuration="3.00" haltingDurationSum="21.00" meanIntervalHaltingDuration="1.91" maxIntervalHaltingDuration="3.00" intervalHaltingDurationSum="21.00" startedHalts="11.00" meanVehicleNumber="1.91" maxVehicleNumber="5" />
   <interval begin="22200.00" end="22300.00" id="e2_L40279_1_3" sampledSeconds="264.10" nVehEntered="21" nVehLeft="23" nVehSeen="24" meanSpeed="7.69" meanTimeLoss="4.22" meanOccupancy="6.41" maxOccupancy="12.71" meanMaxJamLengthInVehicles="0.08" meanMaxJamLengthInMeters="0.35" maxJamLengthInVehicles="1" maxJamLengthInMeters="4.62" jamLengthInVehiclesSum="8" jamLengthInMetersSum="34.82" meanHaltingDuration="1.80" maxHaltingDuration="3.00" haltingDurationSum="9.00" meanIntervalHaltingDuration="1.80" maxIntervalHaltingDuration="3.00" intervalHaltingDurationSum="9.00" startedHalts="7.00" meanVehicleNumber="2.71" maxVehicleNumber="5" />
   <interval begin="22300.00" end="22400.00" id="e2_L40279_1_3" sampledSeconds="180.80" nVehEntered="18" nVehLeft="18" nVehSeen="19" meanSpeed="6.76" meanTimeLoss="4.37" meanOccupancy="4.39" maxOccupancy="12.71" meanMaxJamLengthInVehicles="0.09" meanMaxJamLengthInMeters="0.45" maxJamLengthInVehicles="2" maxJamLengthInMeters="13.40" jamLengthInVehiclesSum="9" jamLengthInMetersSum="45.18" meanHaltingDuration="2.14" maxHaltingDuration="4.00" haltingDurationSum="15.00" meanIntervalHaltingDuration="2.14" maxIntervalHaltingDuration="4.00" intervalHaltingDurationSum="15.00" startedHalts="8.00" meanVehicleNumber="1.85" maxVehicleNumber="5" />
   <interval begin="22400.00" end="22500.00" id="e2_L40279_1_3" sampledSeconds="190.50" nVehEntered="19" nVehLeft="19" nVehSeen="20" meanSpeed="7.91" meanTimeLoss="3.48" meanOccupancy="4.56" maxOccupancy="10.16" meanMaxJamLengthInVehicles="0.03" meanMaxJamLengthInMeters="0.12" maxJamLengthInVehicles="1" maxJamLengthInMeters="4.62" jamLengthInVehiclesSum="3" jamLengthInMetersSum="12.05" meanHaltingDuration="1.33" maxHaltingDuration="2.00" haltingDurationSum="8.00" meanIntervalHaltingDuration="1.00" maxIntervalHaltingDuration="2.00" intervalHaltingDurationSum="6.00" startedHalts="7.00" meanVehicleNumber="1.95" maxVehicleNumber="4" />
   <interval begin="22500.00" end="22600.00" id="e2_L40279_1_3" sampledSeconds="145.06" nVehEntered="17" nVehLeft="17" nVehSeen="18" meanSpeed="8.49" meanTimeLoss="2.50" meanOccupancy="3.49" maxOccupancy="7.62" meanMaxJamLengthInVehicles="0.03" meanMaxJamLengthInMeters="0.13" maxJamLengthInVehicles="1" maxJamLengthInMeters="4.62" jamLengthInVehiclesSum="3" jamLengthInMetersSum="12.64" meanHaltingDuration="1.75" maxHaltingDuration="3.00" haltingDurationSum="7.00" meanIntervalHaltingDuration="1.75" maxIntervalHaltingDuration="3.00" intervalHaltingDurationSum="7.00" startedHalts="4.00" meanVehicleNumber="1.49" maxVehicleNumber="3" />
   <interval begin="22600.00" end="22700.00" id="e2_L40279_1_3" sampledSeconds="249.53" nVehEntered="23" nVehLeft="23" nVehSeen="24" meanSpeed="6.67" meanTimeLoss="4.84" meanOccupancy="6.05" maxOccupancy="12.71" meanMaxJamLengthInVehicles="0.18" meanMaxJamLengthInMeters="0.99" maxJamLengthInVehicles="3" maxJamLengthInMeters="19.73" jamLengthInVehiclesSum="18" jamLengthInMetersSum="99.35" meanHaltingDuration="2.17" maxHaltingDuration="5.00" haltingDurationSum="26.00" meanIntervalHaltingDuration="2.17" maxIntervalHaltingDuration="5.00" intervalHaltingDurationSum="26.00" startedHalts="14.00" meanVehicleNumber="2.55" maxVehicleNumber="5" />
   <interval begin="22700.00" end="22800.00" id="e2_L40279_1_3" sampledSeconds="100.52" nVehEntered="15" nVehLeft="16" nVehSeen="16" meanSpeed="9.51" meanTimeLoss="1.50" meanOccupancy="2.32" maxOccupancy="7.62" meanMaxJamLengthInVehicles="0.01" meanMaxJamLengthInMeters="0.04" maxJamLengthInVehicles="1" maxJamLengthInMeters="3.75" jamLengthInVehiclesSum="1" jamLengthInMetersSum="3.75" meanHaltingDuration="0.00" maxHaltingDuration="0.00" haltingDurationSum="0.00" meanIntervalHaltingDuration="0.00" maxIntervalHaltingDuration="0.00" intervalHaltingDurationSum="0.00" startedHalts="1.00" meanVehicleNumber="1.04" maxVehicleNumber="3" />
   <interval begin="22800.00" end="22900.00" id="e2_L40279_1_3" sampledSeconds="53.15" nVehEntered="5" nVehLeft="3" nVehSeen="5" meanSpeed="10.91" meanTimeLoss="1.35" meanOccupancy="1.30" maxOccupancy="5.08" meanMaxJamLengthInVehicles="0.00" meanMaxJamLengthInMeters="0.00" maxJamLengthInVehicles="0" maxJamLengthInMeters="0.00" jamLengthInVehiclesSum="0" jamLengthInMetersSum="0.00" meanHaltingDuration="1.00" maxHaltingDuration="1.00" haltingDurationSum="1.00" meanIntervalHaltingDuration="1.00" maxIntervalHaltingDuration="1.00" intervalHaltingDurationSum="1.00" startedHalts="1.00" meanVehicleNumber="0.54" maxVehicleNumber="2" />
   <interval begin="22900.00" end="23000.00" id="e2_L40279_1_3" sampledSeconds="175.95" nVehEntered="20" nVehLeft="18" nVehSeen="22" meanSpeed="5.05" meanTimeLoss="4.73" meanOccupancy="4.22" maxOccupancy="12.71" meanMaxJamLengthInVehicles="0.48" meanMaxJamLengthInMeters="2.80" maxJamLengthInVehicles="4" maxJamLengthInMeters="25.76" jamLengthInVehiclesSum="48" jamLengthInMetersSum="279.95" meanHaltingDuration="5.18" maxHaltingDuration="16.00" haltingDurationSum="57.00" meanIntervalHaltingDuration="5.18" maxIntervalHaltingDuration="16.00" intervalHaltingDurationSum="57.00" startedHalts="14.00" meanVehicleNumber="1.80" maxVehicleNumber="5" />
   <interval begin="23000.00" end="23100.00" id="e2_L40279_1_3" sampledSeconds="1075.00" nVehEntered="27" nVehLeft="13" nVehSeen="31" meanSpeed="0.55" meanTimeLoss="33.14" meanOccupancy="27.32" maxOccupancy="45.74" meanMaxJamLengthInVehicles="9.78" meanMaxJamLengthInMeters="71.77" maxJamLengthInVehicles="17" maxJamLengthInMeters="130.74" jamLengthInVehiclesSum="978" jamLengthInMetersSum="7176.55" meanHaltingDuration="60.76" maxHaltingDuration="116.00" haltingDurationSum="1033.00" meanIntervalHaltingDuration="58.29" maxIntervalHaltingDuration="100.00" intervalHaltingDurationSum="991.00" startedHalts="13.00" meanVehicleNumber="10.75" maxVehicleNumber="18" />
   <interval begin="23100.00" end="23200.00" id="e2_L40279_1_3" sampledSeconds="2143.00" nVehEntered="7" nVehLeft="3" nVehSeen="25" meanSpeed="0.04" meanTimeLoss="85.47" meanOccupancy="54.46" maxOccupancy="55.90" meanMaxJamLengthInVehicles="21.19" meanMaxJamLengthInMeters="164.59" maxJamLengthInVehicles="22" maxJamLengthInMeters="172.49" jamLengthInVehiclesSum="2119" jamLengthInMetersSum="16458.63" meanHaltingDuration="143.45" maxHaltingDuration="216.00" haltingDurationSum="3156.00" meanIntervalHaltingDuration="96.50" maxIntervalHaltingDuration="100.00" intervalHaltingDurationSum="2123.00" startedHalts="6.00" meanVehicleNumber="21.43" maxVehicleNumber="22" />
   <interval begin="23200.00" end="23300.00" id="e2_L40279_1_3" sampledSeconds="2200.00" nVehEntered="0" nVehLeft="0" nVehSeen="22" meanSpeed="0.00" meanTimeLoss="100.00" meanOccupancy="55.90" maxOccupancy="55.90" meanMaxJamLengthInVehicles="22.00" meanMaxJamLengthInMeters="172.40" maxJamLengthInVehicles="22" maxJamLengthInMeters="172.40" jamLengthInVehiclesSum="2200" jamLengthInMetersSum="17240.47" meanHaltingDuration="243.45" maxHaltingDuration="316.00" haltingDurationSum="5356.00" meanIntervalHaltingDuration="100.00" maxIntervalHaltingDuration="100.00" intervalHaltingDurationSum="2200.00" startedHalts="0.00" meanVehicleNumber="22.00" maxVehicleNumber="22" />
   <interval begin="23300.00" end="23400.00" id="e2_L40279_1_3" sampledSeconds="2200.00" nVehEntered="0" nVehLeft="0" nVehSeen="22" meanSpeed="0.00" meanTimeLoss="100.00" meanOccupancy="55.90" maxOccupancy="55.90" meanMaxJamLengthInVehicles="22.00" meanMaxJamLengthInMeters="172.40" maxJamLengthInVehicles="22" maxJamLengthInMeters="172.40" jamLengthInVehiclesSum="2200" jamLengthInMetersSum="17240.47" meanHaltingDuration="343.45" maxHaltingDuration="416.00" haltingDurationSum="7556.00" meanIntervalHaltingDuration="100.00" maxIntervalHaltingDuration="100.00" intervalHaltingDurationSum="2200.00" startedHalts="0.00" meanVehicleNumber="22.00" maxVehicleNumber="22" />
   <interval begin="23400.00" end="23500.00" id="e2_L40279_1_3" sampledSeconds="2200.00" nVehEntered="0" nVehLeft="0" nVehSeen="22" meanSpeed="0.00" meanTimeLoss="100.00" meanOccupancy="55.90" maxOccupancy="55.90" meanMaxJamLengthInVehicles="22.00" meanMaxJamLengthInMeters="172.40" maxJamLengthInVehicles="22" maxJamLengthInMeters="172.40" jamLengthInVehiclesSum="2200" jamLengthInMetersSum="17240.47" meanHaltingDuration="443.45" maxHaltingDuration="516.00" haltingDurationSum="9756.00" meanIntervalHaltingDuration="100.00" maxIntervalHaltingDuration="100.00" intervalHaltingDurationSum="2200.00" startedHalts="0.00" meanVehicleNumber="22.00" maxVehicleNumber="22" />
   <interval begin="23500.00" end="23600.00" id="e2_L40279_1_3" sampledSeconds="2200.00" nVehEntered="0" nVehLeft="0" nVehSeen="22" meanSpeed="0.00" meanTimeLoss="100.00" meanOccupancy="55.90" maxOccupancy="55.90" meanMaxJamLengthInVehicles="22.00" meanMaxJamLengthInMeters="172.40" maxJamLengthInVehicles="22" maxJamLengthInMeters="172.40" jamLengthInVehiclesSum="2200" jamLengthInMetersSum="17240.47" meanHaltingDuration="543.45" maxHaltingDuration="616.00" haltingDurationSum="11956.00" meanIntervalHaltingDuration="100.00" maxIntervalHaltingDuration="100.00" intervalHaltingDurationSum="2200.00" startedHalts="0.00" meanVehicleNumber="22.00" maxVehicleNumber="22" />
   <interval begin="23600.00" end="23700.00" id="e2_L40279_1_3" sampledSeconds="2200.00" nVehEntered="0" nVehLeft="0" nVehSeen="22" meanSpeed="0.00" meanTimeLoss="100.00" meanOccupancy="55.90" maxOccupancy="55.90" meanMaxJamLengthInVehicles="22.00" meanMaxJamLengthInMeters="172.40" maxJamLengthInVehicles="22" maxJamLengthInMeters="172.40" jamLengthInVehiclesSum="2200" jamLengthInMetersSum="17240.47" meanHaltingDuration="643.45" maxHaltingDuration="716.00" haltingDurationSum="14156.00" meanIntervalHaltingDuration="100.00" maxIntervalHaltingDuration="100.00" intervalHaltingDurationSum="2200.00" startedHalts="0.00" meanVehicleNumber="22.00" maxVehicleNumber="22" />
   <interval begin="23700.00" end="23800.00" id="e2_L40279_1_3" sampledSeconds="2200.00" nVehEntered="0" nVehLeft="0" nVehSeen="22" meanSpeed="0.00" meanTimeLoss="100.00" meanOccupancy="55.90" maxOccupancy="55.90" meanMaxJamLengthInVehicles="22.00" meanMaxJamLengthInMeters="172.40" maxJamLengthInVehicles="22" maxJamLengthInMeters="172.40" jamLengthInVehiclesSum="2200" jamLengthInMetersSum="17240.47" meanHaltingDuration="743.45" maxHaltingDuration="816.00" haltingDurationSum="16356.00" meanIntervalHaltingDuration="100.00" maxIntervalHaltingDuration="100.00" intervalHaltingDurationSum="2200.00" startedHalts="0.00" meanVehicleNumber="22.00" maxVehicleNumber="22" />
   <interval begin="23800.00" end="23900.00" id="e2_L40279_1_3" sampledSeconds="2200.00" nVehEntered="0" nVehLeft="0" nVehSeen="22" meanSpeed="0.00" meanTimeLoss="100.00" meanOccupancy="55.90" maxOccupancy="55.90" meanMaxJamLengthInVehicles="22.00" meanMaxJamLengthInMeters="172.40" maxJamLengthInVehicles="22" maxJamLengthInMeters="172.40" jamLengthInVehiclesSum="2200" jamLengthInMetersSum="17240.47" meanHaltingDuration="843.45" maxHaltingDuration="916.00" haltingDurationSum="18556.00" meanIntervalHaltingDuration="100.00" maxIntervalHaltingDuration="100.00" intervalHaltingDurationSum="2200.00" startedHalts="0.00" meanVehicleNumber="22.00" maxVehicleNumber="22" />
   <interval begin="23900.00" end="24000.00" id="e2_L40279_1_3" sampledSeconds="2200.00" nVehEntered="0" nVehLeft="0" nVehSeen="22" meanSpeed="0.00" meanTimeLoss="100.00" meanOccupancy="55.90" maxOccupancy="55.90" meanMaxJamLengthInVehicles="22.00" meanMaxJamLengthInMeters="172.41" maxJamLengthInVehicles="22" maxJamLengthInMeters="172.48" jamLengthInVehiclesSum="2200" jamLengthInMetersSum="17240.80" meanHaltingDuration="943.45" maxHaltingDuration="1016.00" haltingDurationSum="20756.00" meanIntervalHaltingDuration="100.00" maxIntervalHaltingDuration="100.00" intervalHaltingDurationSum="2200.00" startedHalts="0.00" meanVehicleNumber="22.00" maxVehicleNumber="22" />
   <interval begin="24000.00" end="24100.00" id="e2_L40279_1_3" sampledSeconds="1512.13" nVehEntered="10" nVehLeft="20" nVehSeen="32" meanSpeed="1.43" meanTimeLoss="41.86" meanOccupancy="37.88" maxOccupancy="55.90" meanMaxJamLengthInVehicles="7.74" meanMaxJamLengthInMeters="61.90" maxJamLengthInVehicles="22" maxJamLengthInMeters="174.46" jamLengthInVehiclesSum="817" jamLengthInMetersSum="6407.48" meanHaltingDuration="170.50" maxHaltingDuration="1025.00" haltingDurationSum="20630.00" meanIntervalHaltingDuration="7.36" maxIntervalHaltingDuration="46.00" intervalHaltingDurationSum="890.00" startedHalts="104.00" meanVehicleNumber="15.19" maxVehicleNumber="22" />
   <interval begin="24100.00" end="24200.00" id="e2_L40279_1_3" sampledSeconds="1644.93" nVehEntered="21" nVehLeft="12" nVehSeen="33" meanSpeed="0.59" meanTimeLoss="47.48" meanOccupancy="40.07" maxOccupancy="51.26" meanMaxJamLengthInVehicles="12.92" meanMaxJamLengthInMeters="108.60" maxJamLengthInVehicles="21" maxJamLengthInMeters="172.93" jamLengthInVehiclesSum="1346" jamLengthInMetersSum="11184.22" meanHaltingDuration="19.24" maxHaltingDuration="80.00" haltingDurationSum="1501.00" meanIntervalHaltingDuration="18.09" maxIntervalHaltingDuration="80.00" intervalHaltingDurationSum="1411.00" startedHalts="72.00" meanVehicleNumber="16.45" maxVehicleNumber="21" />
   <interval begin="24200.00" end="24300.00" id="e2_L40279_1_3" sampledSeconds="1954.18" nVehEntered="9" nVehLeft="8" nVehSeen="30" meanSpeed="0.39" meanTimeLoss="63.11" meanOccupancy="49.61" maxOccupancy="55.90" meanMaxJamLengthInVehicles="14.96" meanMaxJamLengthInMeters="119.73" maxJamLengthInVehicles="22" maxJamLengthInMeters="173.32" jamLengthInVehiclesSum="1678" jamLengthInMetersSum="13320.15" meanHaltingDuration="25.70" maxHaltingDuration="89.00" haltingDurationSum="2801.00" meanIntervalHaltingDuration="16.05" maxIntervalHaltingDuration="58.00" intervalHaltingDurationSum="1749.00" startedHalts="92.00" meanVehicleNumber="19.55" maxVehicleNumber="22" />
   <interval begin="24300.00" end="24400.00" id="e2_L40279_1_3" sampledSeconds="1868.98" nVehEntered="2" nVehLeft="15" nVehSeen="24" meanSpeed="0.72" meanTimeLoss="73.41" meanOccupancy="47.31" maxOccupancy="55.90" meanMaxJamLengthInVehicles="14.23" meanMaxJamLengthInMeters="112.54" maxJamLengthInVehicles="22" maxJamLengthInMeters="176.80" jamLengthInVehiclesSum="1430" jamLengthInMetersSum="11289.90" meanHaltingDuration="39.22" maxHaltingDuration="111.00" haltingDurationSum="2157.00" meanIntervalHaltingDuration="24.36" maxIntervalHaltingDuration="81.00" intervalHaltingDurationSum="1340.00" startedHalts="36.00" meanVehicleNumber="18.72" maxVehicleNumber="22" />
   <interval begin="24400.00" end="24500.00" id="e2_L40279_1_3" sampledSeconds="597.06" nVehEntered="22" nVehLeft="26" nVehSeen="31" meanSpeed="3.81" meanTimeLoss="13.39" meanOccupancy="14.86" maxOccupancy="25.41" meanMaxJamLengthInVehicles="0.66" meanMaxJamLengthInMeters="6.37" maxJamLengthInVehicles="4" maxJamLengthInMeters="54.77" jamLengthInVehiclesSum="66" jamLengthInMetersSum="637.49" meanHaltingDuration="3.13" maxHaltingDuration="17.00" haltingDurationSum="97.00" meanIntervalHaltingDuration="3.13" maxIntervalHaltingDuration="17.00" intervalHaltingDurationSum="97.00" startedHalts="31.00" meanVehicleNumber="6.01" maxVehicleNumber="10" />
   <interval begin="24500.00" end="24600.00" id="e2_L40279_1_3" sampledSeconds="1390.00" nVehEntered="17" nVehLeft="5" nVehSeen="22" meanSpeed="0.30" meanTimeLoss="61.67" meanOccupancy="35.32" maxOccupancy="43.20" meanMaxJamLengthInVehicles="13.06" meanMaxJamLengthInMeters="130.51" maxJamLengthInVehicles="17" maxJamLengthInMeters="165.42" jamLengthInVehiclesSum="1306" jamLengthInMetersSum="13050.67" meanHaltingDuration="72.16" maxHaltingDuration="117.00" haltingDurationSum="1371.00" meanIntervalHaltingDuration="69.53" maxIntervalHaltingDuration="100.00" intervalHaltingDurationSum="1321.00" startedHalts="15.00" meanVehicleNumber="13.90" maxVehicleNumber="17" />
   <interval begin="24600.00" end="24700.00" id="e2_L40279_1_3" sampledSeconds="1700.00" nVehEntered="0" nVehLeft="0" nVehSeen="17" meanSpeed="0.00" meanTimeLoss="100.00" meanOccupancy="43.20" maxOccupancy="43.20" meanMaxJamLengthInVehicles="17.00" meanMaxJamLengthInMeters="165.41" maxJamLengthInVehicles="17" maxJamLengthInMeters="165.41" jamLengthInVehiclesSum="1700" jamLengthInMetersSum="16541.39" meanHaltingDuration="180.53" maxHaltingDuration="217.00" haltingDurationSum="3069.00" meanIntervalHaltingDuration="100.00" maxIntervalHaltingDuration="100.00" intervalHaltingDurationSum="1700.00" startedHalts="0.00" meanVehicleNumber="17.00" maxVehicleNumber="17" />
   <interval begin="24700.00" end="24800.00" id="e2_L40279_1_3" sampledSeconds="1700.00" nVehEntered="0" nVehLeft="0" nVehSeen="17" meanSpeed="0.00" meanTimeLoss="100.00" meanOccupancy="43.20" maxOccupancy="43.20" meanMaxJamLengthInVehicles="17.00" meanMaxJamLengthInMeters="165.41" maxJamLengthInVehicles="17" maxJamLengthInMeters="165.41" jamLengthInVehiclesSum="1700" jamLengthInMetersSum="16541.38" meanHaltingDuration="280.53" maxHaltingDuration="317.00" haltingDurationSum="4769.00" meanIntervalHaltingDuration="100.00" maxIntervalHaltingDuration="100.00" intervalHaltingDurationSum="1700.00" startedHalts="0.00" meanVehicleNumber="17.00" maxVehicleNumber="17" />
   <interval begin="24800.00" end="24900.00" id="e2_L40279_1_3" sampledSeconds="1700.00" nVehEntered="0" nVehLeft="0" nVehSeen="17" meanSpeed="0.00" meanTimeLoss="100.00" meanOccupancy="43.20" maxOccupancy="43.20" meanMaxJamLengthInVehicles="17.00" meanMaxJamLengthInMeters="165.41" maxJamLengthInVehicles="17" maxJamLengthInMeters="165.41" jamLengthInVehiclesSum="1700" jamLengthInMetersSum="16541.37" meanHaltingDuration="380.53" maxHaltingDuration="417.00" haltingDurationSum="6469.00" meanIntervalHaltingDuration="100.00" maxIntervalHaltingDuration="100.00" intervalHaltingDurationSum="1700.00" startedHalts="0.00" meanVehicleNumber="17.00" maxVehicleNumber="17" />
   <interval begin="24900.00" end="25000.00" id="e2_L40279_1_3" sampledSeconds="1537.12" nVehEntered="12" nVehLeft="14" nVehSeen="29" meanSpeed="0.91" meanTimeLoss="49.14" meanOccupancy="38.67" maxOccupancy="43.20" meanMaxJamLengthInVehicles="8.70" meanMaxJamLengthInMeters="78.34" maxJamLengthInVehicles="17" maxJamLengthInMeters="167.58" jamLengthInVehiclesSum="919" jamLengthInMetersSum="8081.45" meanHaltingDuration="52.10" maxHaltingDuration="439.00" haltingDurationSum="7503.00" meanIntervalHaltingDuration="7.18" maxIntervalHaltingDuration="55.00" intervalHaltingDurationSum="1034.00" startedHalts="129.00" meanVehicleNumber="15.38" maxVehicleNumber="17" />
   <interval begin="25000.00" end="25100.00" id="e2_L40279_1_3" sampledSeconds="1177.18" nVehEntered="20" nVehLeft="23" nVehSeen="35" meanSpeed="2.41" meanTimeLoss="27.06" meanOccupancy="29.75" maxOccupancy="40.66" meanMaxJamLengthInVehicles="2.07" meanMaxJamLengthInMeters="14.50" maxJamLengthInVehicles="9" maxJamLengthInMeters="73.51" jamLengthInVehiclesSum="251" jamLengthInMetersSum="1668.11" meanHaltingDuration="2.95" maxHaltingDuration="16.00" haltingDurationSum="440.00" meanIntervalHaltingDuration="2.54" maxIntervalHaltingDuration="13.00" intervalHaltingDurationSum="378.00" startedHalts="142.00" meanVehicleNumber="11.79" maxVehicleNumber="16" />
   <interval begin="25100.00" end="25200.00" id="e2_L40279_1_3" sampledSeconds="1461.47" nVehEntered="10" nVehLeft="13" nVehSeen="22" meanSpeed="0.98" meanTimeLoss="61.20" meanOccupancy="36.94" maxOccupancy="48.28" meanMaxJamLengthInVehicles="9.49" meanMaxJamLengthInMeters="82.67" maxJamLengthInVehicles="18" maxJamLengthInMeters="159.60" jamLengthInVehiclesSum="1033" jamLengthInMetersSum="8852.47" meanHaltingDuration="13.32" maxHaltingDuration="57.00" haltingDurationSum="1146.00" meanIntervalHaltingDuration="12.85" maxIntervalHaltingDuration="56.00" intervalHaltingDurationSum="1105.00" startedHalts="78.00" meanVehicleNumber="14.65" maxVehicleNumber="19" />
   <interval begin="25200.00" end="25300.00" id="e2_L40279_1_3" sampledSeconds="1310.50" nVehEntered="13" nVehLeft="6" nVehSeen="22" meanSpeed="0.69" meanTimeLoss="56.26" meanOccupancy="31.54" maxOccupancy="38.55" meanMaxJamLengthInVehicles="10.24" meanMaxJamLengthInMeters="114.74" maxJamLengthInVehicles="16" maxJamLengthInMeters="179.50" jamLengthInVehiclesSum="1028" jamLengthInMetersSum="11492.88" meanHaltingDuration="26.70" maxHaltingDuration="86.00" haltingDurationSum="1068.00" meanIntervalHaltingDuration="26.70" maxIntervalHaltingDuration="86.00" intervalHaltingDurationSum="1068.00" startedHalts="41.00" meanVehicleNumber="13.11" maxVehicleNumber="16" />
   <interval begin="25300.00" end="25400.00" id="e2_L40279_1_3" sampledSeconds="1600.00" nVehEntered="0" nVehLeft="0" nVehSeen="16" meanSpeed="0.00" meanTimeLoss="100.00" meanOccupancy="38.55" maxOccupancy="38.55" meanMaxJamLengthInVehicles="16.00" meanMaxJamLengthInMeters="179.40" maxJamLengthInVehicles="16" maxJamLengthInMeters="179.40" jamLengthInVehiclesSum="1600" jamLengthInMetersSum="17939.61" meanHaltingDuration="164.19" maxHaltingDuration="186.00" haltingDurationSum="2627.00" meanIntervalHaltingDuration="100.00" maxIntervalHaltingDuration="100.00" intervalHaltingDurationSum="1600.00" startedHalts="0.00" meanVehicleNumber="16.00" maxVehicleNumber="16" />
   <interval begin="25400.00" end="25500.00" id="e2_L40279_1_3" sampledSeconds="1600.00" nVehEntered="0" nVehLeft="0" nVehSeen="16" meanSpeed="0.00" meanTimeLoss="100.00" meanOccupancy="38.55" maxOccupancy="38.55" meanMaxJamLengthInVehicles="16.00" meanMaxJamLengthInMeters="179.40" maxJamLengthInVehicles="16" maxJamLengthInMeters="179.40" jamLengthInVehiclesSum="1600" jamLengthInMetersSum="17939.58" meanHaltingDuration="264.19" maxHaltingDuration="286.00" haltingDurationSum="4227.00" meanIntervalHaltingDuration="100.00" maxIntervalHaltingDuration="100.00" intervalHaltingDurationSum="1600.00" startedHalts="0.00" meanVehicleNumber="16.00" maxVehicleNumber="16" />
   <interval begin="25500.00" end="25600.00" id="e2_L40279_1_3" sampledSeconds="1600.00" nVehEntered="0" nVehLeft="0" nVehSeen="16" meanSpeed="0.00" meanTimeLoss="100.00" meanOccupancy="38.55" maxOccupancy="38.55" meanMaxJamLengthInVehicles="16.00" meanMaxJamLengthInMeters="179.40" maxJamLengthInVehicles="16" maxJamLengthInMeters="179.40" jamLengthInVehiclesSum="1600" jamLengthInMetersSum="17939.58" meanHaltingDuration="364.19" maxHaltingDuration="386.00" haltingDurationSum="5827.00" meanIntervalHaltingDuration="100.00" maxIntervalHaltingDuration="100.00" intervalHaltingDurationSum="1600.00" startedHalts="0.00" meanVehicleNumber="16.00" maxVehicleNumber="16" />
   <interval begin="25600.00" end="25700.00" id="e2_L40279_1_3" sampledSeconds="1401.88" nVehEntered="1" nVehLeft="8" nVehSeen="17" meanSpeed="0.51" meanTimeLoss="79.10" meanOccupancy="34.40" maxOccupancy="38.55" meanMaxJamLengthInVehicles="12.06" meanMaxJamLengthInMeters="134.62" maxJamLengthInVehicles="16" maxJamLengthInMeters="180.32" jamLengthInVehiclesSum="1208" jamLengthInMetersSum="13471.59" meanHaltingDuration="264.28" maxHaltingDuration="445.00" haltingDurationSum="6607.00" meanIntervalHaltingDuration="46.60" maxIntervalHaltingDuration="94.00" intervalHaltingDurationSum="1165.00" startedHalts="10.00" meanVehicleNumber="14.04" maxVehicleNumber="16" />
   <interval begin="25700.00" end="25800.00" id="e2_L40279_1_3" sampledSeconds="715.21" nVehEntered="20" nVehLeft="24" nVehSeen="29" meanSpeed="3.70" meanTimeLoss="17.37" meanOccupancy="17.91" maxOccupancy="24.49" meanMaxJamLengthInVehicles="0.37" meanMaxJamLengthInMeters="1.79" maxJamLengthInVehicles="2" maxJamLengthInMeters="13.68" jamLengthInVehiclesSum="38" jamLengthInMetersSum="183.76" meanHaltingDuration="1.56" maxHaltingDuration="4.00" haltingDurationSum="108.00" meanIntervalHaltingDuration="1.49" maxIntervalHaltingDuration="3.00" intervalHaltingDurationSum="103.00" startedHalts="68.00" meanVehicleNumber="7.20" maxVehicleNumber="10" />
   <interval begin="25800.00" end="25900.00" id="e2_L40279_1_3" sampledSeconds="511.78" nVehEntered="23" nVehLeft="23" nVehSeen="28" meanSpeed="4.05" meanTimeLoss="12.35" meanOccupancy="12.65" maxOccupancy="20.33" meanMaxJamLengthInVehicles="0.23" meanMaxJamLengthInMeters="1.13" maxJamLengthInVehicles="2" maxJamLengthInMeters="13.32" jamLengthInVehiclesSum="23" jamLengthInMetersSum="113.36" meanHaltingDuration="1.68" maxHaltingDuration="4.00" haltingDurationSum="52.00" meanIntervalHaltingDuration="1.68" maxIntervalHaltingDuration="4.00" intervalHaltingDurationSum="52.00" startedHalts="33.00" meanVehicleNumber="5.19" maxVehicleNumber="8" />