<?xml version="1.0" encoding="UTF-8"?>

<!-- generated on Sun Feb 17 15:57:00 2019 by 
<configuration xmlns:xsi="http://www.w3.org/2001/XMLSchema-instance" xsi:noNamespaceSchemaLocation="http://sumo.dlr.de/xsd/Configuration.xsd">

    <input>
        <net-file value="/home/sda/Documents/sumo-sathorn-ray/models/sathorn-morning/sathorn_w_fixed_20160404.net.xml"/>
        <route-files value="/home/sda/Documents/sumo-sathorn-ray/models/sathorn-morning/Great-route/sathorn_w_20160422edit2.rou.xml"/>
        <additional-files value="/home/sda/Documents/sumo-sathorn-ray/models/sathorn-morning/sathon_wide_tls_20160418_edited.add.xml,/home/sda/Documents/sumo-sathorn-ray/detectors/sathorn_w_detectors.add.xml"/>
    </input>

    <time>
        <begin value="21600"/>
        <end value="32400"/>
        <step-length value="1"/>
    </time>

    <processing>
        <no-internal-links value="true"/>
        <ignore-junction-blocker value="-1"/>
        <time-to-teleport value="-1"/>
        <eager-insert value="true"/>
        <time-to-impatience value="300"/>
    </processing>

    <report>
        <no-warnings value="true"/>
    </report>

    <random_number>
        <random value="false"/>
        <seed value="20"/>
    </random_number>

    <gui_only>
        <gui-settings-file value="/home/sda/Documents/sumo-sathorn-ray/gui-settings/gui-settings-file-surasak.xml"/>
        <quit-on-end value="true"/>
        <start value="true"/>
        <tracker-interval value="1"/>
    </gui_only>

</configuration>
-->

<detector xmlns:xsi="http://www.w3.org/2001/XMLSchema-instance" xsi:noNamespaceSchemaLocation="http://sumo.dlr.de/xsd/det_e2_file.xsd">
   <interval begin="21600.00" end="21700.00" id="e2_L197#2_4_0" sampledSeconds="0.00" nVehEntered="0" nVehLeft="0" nVehSeen="0" meanSpeed="-1.00" meanTimeLoss="-1.00" meanOccupancy="0.00" maxOccupancy="0.00" meanMaxJamLengthInVehicles="0.00" meanMaxJamLengthInMeters="0.00" maxJamLengthInVehicles="0" maxJamLengthInMeters="0.00" jamLengthInVehiclesSum="0" jamLengthInMetersSum="0.00" meanHaltingDuration="0.00" maxHaltingDuration="0.00" haltingDurationSum="0.00" meanIntervalHaltingDuration="0.00" maxIntervalHaltingDuration="0.00" intervalHaltingDurationSum="0.00" startedHalts="0.00" meanVehicleNumber="0.00" maxVehicleNumber="0" />
   <interval begin="21700.00" end="21800.00" id="e2_L197#2_4_0" sampledSeconds="0.00" nVehEntered="0" nVehLeft="0" nVehSeen="0" meanSpeed="-1.00" meanTimeLoss="-1.00" meanOccupancy="0.00" maxOccupancy="0.00" meanMaxJamLengthInVehicles="0.00" meanMaxJamLengthInMeters="0.00" maxJamLengthInVehicles="0" maxJamLengthInMeters="0.00" jamLengthInVehiclesSum="0" jamLengthInMetersSum="0.00" meanHaltingDuration="0.00" maxHaltingDuration="0.00" haltingDurationSum="0.00" meanIntervalHaltingDuration="0.00" maxIntervalHaltingDuration="0.00" intervalHaltingDurationSum="0.00" startedHalts="0.00" meanVehicleNumber="0.00" maxVehicleNumber="0" />
   <interval begin="21800.00" end="21900.00" id="e2_L197#2_4_0" sampledSeconds="0.00" nVehEntered="0" nVehLeft="0" nVehSeen="0" meanSpeed="-1.00" meanTimeLoss="-1.00" meanOccupancy="0.00" maxOccupancy="0.00" meanMaxJamLengthInVehicles="0.00" meanMaxJamLengthInMeters="0.00" maxJamLengthInVehicles="0" maxJamLengthInMeters="0.00" jamLengthInVehiclesSum="0" jamLengthInMetersSum="0.00" meanHaltingDuration="0.00" maxHaltingDuration="0.00" haltingDurationSum="0.00" meanIntervalHaltingDuration="0.00" maxIntervalHaltingDuration="0.00" intervalHaltingDurationSum="0.00" startedHalts="0.00" meanVehicleNumber="0.00" maxVehicleNumber="0" />
   <interval begin="21900.00" end="22000.00" id="e2_L197#2_4_0" sampledSeconds="331.27" nVehEntered="7" nVehLeft="2" nVehSeen="7" meanSpeed="0.39" meanTimeLoss="45.86" meanOccupancy="48.26" maxOccupancy="65.05" meanMaxJamLengthInVehicles="2.91" meanMaxJamLengthInMeters="17.60" maxJamLengthInVehicles="5" maxJamLengthInMeters="29.00" jamLengthInVehiclesSum="291" jamLengthInMetersSum="1760.08" meanHaltingDuration="30.10" maxHaltingDuration="48.00" haltingDurationSum="301.00" meanIntervalHaltingDuration="30.10" maxIntervalHaltingDuration="48.00" intervalHaltingDurationSum="301.00" startedHalts="10.00" meanVehicleNumber="3.34" maxVehicleNumber="5" />
   <interval begin="22000.00" end="22100.00" id="e2_L197#2_4_0" sampledSeconds="500.00" nVehEntered="0" nVehLeft="0" nVehSeen="5" meanSpeed="0.00" meanTimeLoss="100.00" meanOccupancy="65.05" maxOccupancy="65.05" meanMaxJamLengthInVehicles="5.00" meanMaxJamLengthInMeters="29.00" maxJamLengthInVehicles="5" maxJamLengthInMeters="29.00" jamLengthInVehiclesSum="500" jamLengthInMetersSum="2899.89" meanHaltingDuration="138.60" maxHaltingDuration="148.00" haltingDurationSum="693.00" meanIntervalHaltingDuration="100.00" maxIntervalHaltingDuration="100.00" intervalHaltingDurationSum="500.00" startedHalts="0.00" meanVehicleNumber="5.00" maxVehicleNumber="5" />
   <interval begin="22100.00" end="22200.00" id="e2_L197#2_4_0" sampledSeconds="500.00" nVehEntered="0" nVehLeft="0" nVehSeen="5" meanSpeed="0.00" meanTimeLoss="100.00" meanOccupancy="65.05" maxOccupancy="65.05" meanMaxJamLengthInVehicles="5.00" meanMaxJamLengthInMeters="29.00" maxJamLengthInVehicles="5" maxJamLengthInMeters="29.00" jamLengthInVehiclesSum="500" jamLengthInMetersSum="2899.89" meanHaltingDuration="238.60" maxHaltingDuration="248.00" haltingDurationSum="1193.00" meanIntervalHaltingDuration="100.00" maxIntervalHaltingDuration="100.00" intervalHaltingDurationSum="500.00" startedHalts="0.00" meanVehicleNumber="5.00" maxVehicleNumber="5" />
   <interval begin="22200.00" end="22300.00" id="e2_L197#2_4_0" sampledSeconds="489.72" nVehEntered="1" nVehLeft="1" nVehSeen="6" meanSpeed="0.07" meanTimeLoss="81.16" meanOccupancy="64.16" maxOccupancy="65.05" meanMaxJamLengthInVehicles="4.73" meanMaxJamLengthInMeters="27.53" maxJamLengthInVehicles="5" maxJamLengthInMeters="29.89" jamLengthInVehiclesSum="475" jamLengthInMetersSum="2761.11" meanHaltingDuration="167.30" maxHaltingDuration="296.00" haltingDurationSum="1673.00" meanIntervalHaltingDuration="48.00" maxIntervalHaltingDuration="55.00" intervalHaltingDurationSum="480.00" startedHalts="5.00" meanVehicleNumber="4.91" maxVehicleNumber="5" />
   <interval begin="22300.00" end="22400.00" id="e2_L197#2_4_0" sampledSeconds="490.19" nVehEntered="1" nVehLeft="1" nVehSeen="6" meanSpeed="0.06" meanTimeLoss="81.27" meanOccupancy="64.14" maxOccupancy="65.05" meanMaxJamLengthInVehicles="4.73" meanMaxJamLengthInMeters="27.42" maxJamLengthInVehicles="5" maxJamLengthInMeters="29.89" jamLengthInVehiclesSum="475" jamLengthInMetersSum="2750.17" meanHaltingDuration="64.09" maxHaltingDuration="77.00" haltingDurationSum="705.00" meanIntervalHaltingDuration="43.73" maxIntervalHaltingDuration="77.00" intervalHaltingDurationSum="481.00" startedHalts="6.00" meanVehicleNumber="4.91" maxVehicleNumber="5" />
   <interval begin="22400.00" end="22500.00" id="e2_L197#2_4_0" sampledSeconds="500.00" nVehEntered="0" nVehLeft="0" nVehSeen="5" meanSpeed="0.00" meanTimeLoss="100.00" meanOccupancy="65.05" maxOccupancy="65.05" meanMaxJamLengthInVehicles="5.00" meanMaxJamLengthInMeters="29.00" maxJamLengthInVehicles="5" maxJamLengthInMeters="29.00" jamLengthInVehiclesSum="500" jamLengthInMetersSum="2899.89" meanHaltingDuration="174.00" maxHaltingDuration="177.00" haltingDurationSum="870.00" meanIntervalHaltingDuration="100.00" maxIntervalHaltingDuration="100.00" intervalHaltingDurationSum="500.00" startedHalts="0.00" meanVehicleNumber="5.00" maxVehicleNumber="5" />
   <interval begin="22500.00" end="22600.00" id="e2_L197#2_4_0" sampledSeconds="500.00" nVehEntered="0" nVehLeft="0" nVehSeen="5" meanSpeed="0.00" meanTimeLoss="100.00" meanOccupancy="65.05" maxOccupancy="65.05" meanMaxJamLengthInVehicles="5.00" meanMaxJamLengthInMeters="29.00" maxJamLengthInVehicles="5" maxJamLengthInMeters="29.00" jamLengthInVehiclesSum="500" jamLengthInMetersSum="2899.89" meanHaltingDuration="274.00" maxHaltingDuration="277.00" haltingDurationSum="1370.00" meanIntervalHaltingDuration="100.00" maxIntervalHaltingDuration="100.00" intervalHaltingDurationSum="500.00" startedHalts="0.00" meanVehicleNumber="5.00" maxVehicleNumber="5" />
   <interval begin="22600.00" end="22700.00" id="e2_L197#2_4_0" sampledSeconds="500.00" nVehEntered="0" nVehLeft="0" nVehSeen="5" meanSpeed="0.00" meanTimeLoss="100.00" meanOccupancy="65.05" maxOccupancy="65.05" meanMaxJamLengthInVehicles="5.00" meanMaxJamLengthInMeters="29.00" maxJamLengthInVehicles="5" maxJamLengthInMeters="29.00" jamLengthInVehiclesSum="500" jamLengthInMetersSum="2899.89" meanHaltingDuration="374.00" maxHaltingDuration="377.00" haltingDurationSum="1870.00" meanIntervalHaltingDuration="100.00" maxIntervalHaltingDuration="100.00" intervalHaltingDurationSum="500.00" startedHalts="0.00" meanVehicleNumber="5.00" maxVehicleNumber="5" />
   <interval begin="22700.00" end="22800.00" id="e2_L197#2_4_0" sampledSeconds="500.00" nVehEntered="0" nVehLeft="0" nVehSeen="5" meanSpeed="0.00" meanTimeLoss="100.00" meanOccupancy="65.05" maxOccupancy="65.05" meanMaxJamLengthInVehicles="5.00" meanMaxJamLengthInMeters="29.00" maxJamLengthInVehicles="5" maxJamLengthInMeters="29.00" jamLengthInVehiclesSum="500" jamLengthInMetersSum="2899.89" meanHaltingDuration="474.00" maxHaltingDuration="477.00" haltingDurationSum="2370.00" meanIntervalHaltingDuration="100.00" maxIntervalHaltingDuration="100.00" intervalHaltingDurationSum="500.00" startedHalts="0.00" meanVehicleNumber="5.00" maxVehicleNumber="5" />
   <interval begin="22800.00" end="22900.00" id="e2_L197#2_4_0" sampledSeconds="500.00" nVehEntered="0" nVehLeft="0" nVehSeen="5" meanSpeed="0.00" meanTimeLoss="100.00" meanOccupancy="65.05" maxOccupancy="65.05" meanMaxJamLengthInVehicles="5.00" meanMaxJamLengthInMeters="29.00" maxJamLengthInVehicles="5" maxJamLengthInMeters="29.00" jamLengthInVehiclesSum="500" jamLengthInMetersSum="2899.89" meanHaltingDuration="574.00" maxHaltingDuration="577.00" haltingDurationSum="2870.00" meanIntervalHaltingDuration="100.00" maxIntervalHaltingDuration="100.00" intervalHaltingDurationSum="500.00" startedHalts="0.00" meanVehicleNumber="5.00" maxVehicleNumber="5" />
   <interval begin="22900.00" end="23000.00" id="e2_L197#2_4_0" sampledSeconds="500.00" nVehEntered="0" nVehLeft="0" nVehSeen="5" meanSpeed="0.00" meanTimeLoss="100.00" meanOccupancy="65.05" maxOccupancy="65.05" meanMaxJamLengthInVehicles="5.00" meanMaxJamLengthInMeters="29.00" maxJamLengthInVehicles="5" maxJamLengthInMeters="29.00" jamLengthInVehiclesSum="500" jamLengthInMetersSum="2899.89" meanHaltingDuration="674.00" maxHaltingDuration="677.00" haltingDurationSum="3370.00" meanIntervalHaltingDuration="100.00" maxIntervalHaltingDuration="100.00" intervalHaltingDurationSum="500.00" startedHalts="0.00" meanVehicleNumber="5.00" maxVehicleNumber="5" />
   <interval begin="23000.00" end="23100.00" id="e2_L197#2_4_0" sampledSeconds="500.00" nVehEntered="0" nVehLeft="0" nVehSeen="5" meanSpeed="0.00" meanTimeLoss="100.00" meanOccupancy="65.05" maxOccupancy="65.05" meanMaxJamLengthInVehicles="5.00" meanMaxJamLengthInMeters="29.00" maxJamLengthInVehicles="5" maxJamLengthInMeters="29.00" jamLengthInVehiclesSum="500" jamLengthInMetersSum="2899.89" meanHaltingDuration="774.00" maxHaltingDuration="777.00" haltingDurationSum="3870.00" meanIntervalHaltingDuration="100.00" maxIntervalHaltingDuration="100.00" intervalHaltingDurationSum="500.00" startedHalts="0.00" meanVehicleNumber="5.00" maxVehicleNumber="5" />
   <interval begin="23100.00" end="23200.00" id="e2_L197#2_4_0" sampledSeconds="500.00" nVehEntered="0" nVehLeft="0" nVehSeen="5" meanSpeed="0.00" meanTimeLoss="100.00" meanOccupancy="65.05" maxOccupancy="65.05" meanMaxJamLengthInVehicles="5.00" meanMaxJamLengthInMeters="29.00" maxJamLengthInVehicles="5" maxJamLengthInMeters="29.00" jamLengthInVehiclesSum="500" jamLengthInMetersSum="2899.89" meanHaltingDuration="874.00" maxHaltingDuration="877.00" haltingDurationSum="4370.00" meanIntervalHaltingDuration="100.00" maxIntervalHaltingDuration="100.00" intervalHaltingDurationSum="500.00" startedHalts="0.00" meanVehicleNumber="5.00" maxVehicleNumber="5" />
   <interval begin="23200.00" end="23300.00" id="e2_L197#2_4_0" sampledSeconds="500.00" nVehEntered="0" nVehLeft="0" nVehSeen="5" meanSpeed="0.00" meanTimeLoss="100.00" meanOccupancy="65.05" maxOccupancy="65.05" meanMaxJamLengthInVehicles="5.00" meanMaxJamLengthInMeters="29.00" maxJamLengthInVehicles="5" maxJamLengthInMeters="29.00" jamLengthInVehiclesSum="500" jamLengthInMetersSum="2899.89" meanHaltingDuration="974.00" maxHaltingDuration="977.00" haltingDurationSum="4870.00" meanIntervalHaltingDuration="100.00" maxIntervalHaltingDuration="100.00" intervalHaltingDurationSum="500.00" startedHalts="0.00" meanVehicleNumber="5.00" maxVehicleNumber="5" />
   <interval begin="23300.00" end="23400.00" id="e2_L197#2_4_0" sampledSeconds="500.00" nVehEntered="0" nVehLeft="0" nVehSeen="5" meanSpeed="0.00" meanTimeLoss="100.00" meanOccupancy="65.05" maxOccupancy="65.05" meanMaxJamLengthInVehicles="5.00" meanMaxJamLengthInMeters="29.00" maxJamLengthInVehicles="5" maxJamLengthInMeters="29.00" jamLengthInVehiclesSum="500" jamLengthInMetersSum="2899.89" meanHaltingDuration="1074.00" maxHaltingDuration="1077.00" haltingDurationSum="5370.00" meanIntervalHaltingDuration="100.00" maxIntervalHaltingDuration="100.00" intervalHaltingDurationSum="500.00" startedHalts="0.00" meanVehicleNumber="5.00" maxVehicleNumber="5" />
   <interval begin="23400.00" end="23500.00" id="e2_L197#2_4_0" sampledSeconds="490.01" nVehEntered="1" nVehLeft="1" nVehSeen="6" meanSpeed="0.07" meanTimeLoss="81.21" meanOccupancy="64.02" maxOccupancy="65.05" meanMaxJamLengthInVehicles="4.74" meanMaxJamLengthInMeters="27.52" maxJamLengthInVehicles="5" maxJamLengthInMeters="29.00" jamLengthInVehiclesSum="475" jamLengthInMetersSum="2755.19" meanHaltingDuration="585.00" maxHaltingDuration="1114.00" haltingDurationSum="5850.00" meanIntervalHaltingDuration="48.00" maxIntervalHaltingDuration="60.00" intervalHaltingDurationSum="480.00" startedHalts="5.00" meanVehicleNumber="4.91" maxVehicleNumber="5" />
   <interval begin="23500.00" end="23600.00" id="e2_L197#2_4_0" sampledSeconds="500.00" nVehEntered="0" nVehLeft="0" nVehSeen="5" meanSpeed="0.00" meanTimeLoss="100.00" meanOccupancy="65.05" maxOccupancy="65.05" meanMaxJamLengthInVehicles="5.00" meanMaxJamLengthInMeters="29.00" maxJamLengthInVehicles="5" maxJamLengthInMeters="29.00" jamLengthInVehiclesSum="500" jamLengthInMetersSum="2899.89" meanHaltingDuration="157.40" maxHaltingDuration="160.00" haltingDurationSum="787.00" meanIntervalHaltingDuration="100.00" maxIntervalHaltingDuration="100.00" intervalHaltingDurationSum="500.00" startedHalts="0.00" meanVehicleNumber="5.00" maxVehicleNumber="5" />
   <interval begin="23600.00" end="23700.00" id="e2_L197#2_4_0" sampledSeconds="500.00" nVehEntered="0" nVehLeft="0" nVehSeen="5" meanSpeed="0.00" meanTimeLoss="100.00" meanOccupancy="65.05" maxOccupancy="65.05" meanMaxJamLengthInVehicles="5.00" meanMaxJamLengthInMeters="29.00" maxJamLengthInVehicles="5" maxJamLengthInMeters="29.00" jamLengthInVehiclesSum="500" jamLengthInMetersSum="2899.89" meanHaltingDuration="257.40" maxHaltingDuration="260.00" haltingDurationSum="1287.00" meanIntervalHaltingDuration="100.00" maxIntervalHaltingDuration="100.00" intervalHaltingDurationSum="500.00" startedHalts="0.00" meanVehicleNumber="5.00" maxVehicleNumber="5" />
   <interval begin="23700.00" end="23800.00" id="e2_L197#2_4_0" sampledSeconds="500.00" nVehEntered="0" nVehLeft="0" nVehSeen="5" meanSpeed="0.00" meanTimeLoss="100.00" meanOccupancy="65.05" maxOccupancy="65.05" meanMaxJamLengthInVehicles="5.00" meanMaxJamLengthInMeters="29.00" maxJamLengthInVehicles="5" maxJamLengthInMeters="29.00" jamLengthInVehiclesSum="500" jamLengthInMetersSum="2899.89" meanHaltingDuration="357.40" maxHaltingDuration="360.00" haltingDurationSum="1787.00" meanIntervalHaltingDuration="100.00" maxIntervalHaltingDuration="100.00" intervalHaltingDurationSum="500.00" startedHalts="0.00" meanVehicleNumber="5.00" maxVehicleNumber="5" />
   <interval begin="23800.00" end="23900.00" id="e2_L197#2_4_0" sampledSeconds="492.22" nVehEntered="1" nVehLeft="1" nVehSeen="6" meanSpeed="0.08" meanTimeLoss="81.51" meanOccupancy="66.07" maxOccupancy="68.05" meanMaxJamLengthInVehicles="4.73" meanMaxJamLengthInMeters="27.94" maxJamLengthInVehicles="5" maxJamLengthInMeters="29.90" jamLengthInVehiclesSum="474" jamLengthInMetersSum="2796.70" meanHaltingDuration="206.09" maxHaltingDuration="386.00" haltingDurationSum="2267.00" meanIntervalHaltingDuration="43.64" maxIntervalHaltingDuration="71.00" intervalHaltingDurationSum="480.00" startedHalts="6.00" meanVehicleNumber="4.94" maxVehicleNumber="5" />
   <interval begin="23900.00" end="24000.00" id="e2_L197#2_4_0" sampledSeconds="479.58" nVehEntered="2" nVehLeft="2" nVehSeen="7" meanSpeed="0.12" meanTimeLoss="67.84" meanOccupancy="65.18" maxOccupancy="68.05" meanMaxJamLengthInVehicles="4.58" meanMaxJamLengthInMeters="27.28" maxJamLengthInVehicles="5" maxJamLengthInMeters="30.64" jamLengthInVehiclesSum="458" jamLengthInMetersSum="2728.05" meanHaltingDuration="73.89" maxHaltingDuration="137.00" haltingDurationSum="665.00" meanIntervalHaltingDuration="44.11" maxIntervalHaltingDuration="71.00" intervalHaltingDurationSum="397.00" startedHalts="5.00" meanVehicleNumber="4.80" maxVehicleNumber="5" />
   <interval begin="24000.00" end="24100.00" id="e2_L197#2_4_0" sampledSeconds="500.00" nVehEntered="0" nVehLeft="0" nVehSeen="5" meanSpeed="0.00" meanTimeLoss="100.00" meanOccupancy="65.05" maxOccupancy="65.05" meanMaxJamLengthInVehicles="5.00" meanMaxJamLengthInMeters="29.00" maxJamLengthInVehicles="5" maxJamLengthInMeters="29.00" jamLengthInVehiclesSum="500" jamLengthInMetersSum="2899.90" meanHaltingDuration="124.20" maxHaltingDuration="128.00" haltingDurationSum="621.00" meanIntervalHaltingDuration="100.00" maxIntervalHaltingDuration="100.00" intervalHaltingDurationSum="500.00" startedHalts="0.00" meanVehicleNumber="5.00" maxVehicleNumber="5" />
   <interval begin="24100.00" end="24200.00" id="e2_L197#2_4_0" sampledSeconds="489.38" nVehEntered="1" nVehLeft="1" nVehSeen="6" meanSpeed="0.06" meanTimeLoss="81.16" meanOccupancy="64.02" maxOccupancy="65.05" meanMaxJamLengthInVehicles="4.74" meanMaxJamLengthInMeters="27.48" maxJamLengthInVehicles="5" maxJamLengthInMeters="29.00" jamLengthInVehiclesSum="474" jamLengthInMetersSum="2747.88" meanHaltingDuration="100.09" maxHaltingDuration="145.00" haltingDurationSum="1101.00" meanIntervalHaltingDuration="43.64" maxIntervalHaltingDuration="79.00" intervalHaltingDurationSum="480.00" startedHalts="6.00" meanVehicleNumber="4.90" maxVehicleNumber="5" />
   <interval begin="24200.00" end="24300.00" id="e2_L197#2_4_0" sampledSeconds="500.00" nVehEntered="0" nVehLeft="0" nVehSeen="5" meanSpeed="0.00" meanTimeLoss="100.00" meanOccupancy="65.05" maxOccupancy="65.05" meanMaxJamLengthInVehicles="5.00" meanMaxJamLengthInMeters="29.00" maxJamLengthInVehicles="5" maxJamLengthInMeters="29.00" jamLengthInVehiclesSum="500" jamLengthInMetersSum="2899.90" meanHaltingDuration="176.80" maxHaltingDuration="179.00" haltingDurationSum="884.00" meanIntervalHaltingDuration="100.00" maxIntervalHaltingDuration="100.00" intervalHaltingDurationSum="500.00" startedHalts="0.00" meanVehicleNumber="5.00" maxVehicleNumber="5" />
   <interval begin="24300.00" end="24400.00" id="e2_L197#2_4_0" sampledSeconds="500.00" nVehEntered="0" nVehLeft="0" nVehSeen="5" meanSpeed="0.00" meanTimeLoss="100.00" meanOccupancy="65.05" maxOccupancy="65.05" meanMaxJamLengthInVehicles="5.00" meanMaxJamLengthInMeters="29.00" maxJamLengthInVehicles="5" maxJamLengthInMeters="29.00" jamLengthInVehiclesSum="500" jamLengthInMetersSum="2899.90" meanHaltingDuration="276.80" maxHaltingDuration="279.00" haltingDurationSum="1384.00" meanIntervalHaltingDuration="100.00" maxIntervalHaltingDuration="100.00" intervalHaltingDurationSum="500.00" startedHalts="0.00" meanVehicleNumber="5.00" maxVehicleNumber="5" />
   <interval begin="24400.00" end="24500.00" id="e2_L197#2_4_0" sampledSeconds="500.00" nVehEntered="0" nVehLeft="0" nVehSeen="5" meanSpeed="0.00" meanTimeLoss="100.00" meanOccupancy="65.05" maxOccupancy="65.05" meanMaxJamLengthInVehicles="5.00" meanMaxJamLengthInMeters="29.00" maxJamLengthInVehicles="5" maxJamLengthInMeters="29.00" jamLengthInVehiclesSum="500" jamLengthInMetersSum="2899.90" meanHaltingDuration="376.80" maxHaltingDuration="379.00" haltingDurationSum="1884.00" meanIntervalHaltingDuration="100.00" maxIntervalHaltingDuration="100.00" intervalHaltingDurationSum="500.00" startedHalts="0.00" meanVehicleNumber="5.00" maxVehicleNumber="5" />
   <interval begin="24500.00" end="24600.00" id="e2_L197#2_4_0" sampledSeconds="500.00" nVehEntered="0" nVehLeft="0" nVehSeen="5" meanSpeed="0.00" meanTimeLoss="100.00" meanOccupancy="65.05" maxOccupancy="65.05" meanMaxJamLengthInVehicles="5.00" meanMaxJamLengthInMeters="29.00" maxJamLengthInVehicles="5" maxJamLengthInMeters="29.00" jamLengthInVehiclesSum="500" jamLengthInMetersSum="2899.90" meanHaltingDuration="476.80" maxHaltingDuration="479.00" haltingDurationSum="2384.00" meanIntervalHaltingDuration="100.00" maxIntervalHaltingDuration="100.00" intervalHaltingDurationSum="500.00" startedHalts="0.00" meanVehicleNumber="5.00" maxVehicleNumber="5" />
   <interval begin="24600.00" end="24700.00" id="e2_L197#2_4_0" sampledSeconds="500.00" nVehEntered="0" nVehLeft="0" nVehSeen="5" meanSpeed="0.00" meanTimeLoss="100.00" meanOccupancy="65.05" maxOccupancy="65.05" meanMaxJamLengthInVehicles="5.00" meanMaxJamLengthInMeters="29.00" maxJamLengthInVehicles="5" maxJamLengthInMeters="29.00" jamLengthInVehiclesSum="500" jamLengthInMetersSum="2899.90" meanHaltingDuration="576.80" maxHaltingDuration="579.00" haltingDurationSum="2884.00" meanIntervalHaltingDuration="100.00" maxIntervalHaltingDuration="100.00" intervalHaltingDurationSum="500.00" startedHalts="0.00" meanVehicleNumber="5.00" maxVehicleNumber="5" />
   <interval begin="24700.00" end="24800.00" id="e2_L197#2_4_0" sampledSeconds="500.00" nVehEntered="0" nVehLeft="0" nVehSeen="5" meanSpeed="0.01" meanTimeLoss="99.93" meanOccupancy="66.19" maxOccupancy="68.05" meanMaxJamLengthInVehicles="5.00" meanMaxJamLengthInMeters="29.40" maxJamLengthInVehicles="5" maxJamLengthInMeters="29.90" jamLengthInVehiclesSum="500" jamLengthInMetersSum="2939.73" meanHaltingDuration="676.80" maxHaltingDuration="679.00" haltingDurationSum="3384.00" meanIntervalHaltingDuration="100.00" maxIntervalHaltingDuration="100.00" intervalHaltingDurationSum="500.00" startedHalts="0.00" meanVehicleNumber="5.00" maxVehicleNumber="5" />
   <interval begin="24800.00" end="24900.00" id="e2_L197#2_4_0" sampledSeconds="500.00" nVehEntered="0" nVehLeft="0" nVehSeen="5" meanSpeed="0.00" meanTimeLoss="100.00" meanOccupancy="68.05" maxOccupancy="68.05" meanMaxJamLengthInVehicles="5.00" meanMaxJamLengthInMeters="29.90" maxJamLengthInVehicles="5" maxJamLengthInMeters="29.90" jamLengthInVehiclesSum="500" jamLengthInMetersSum="2989.89" meanHaltingDuration="776.80" maxHaltingDuration="779.00" haltingDurationSum="3884.00" meanIntervalHaltingDuration="100.00" maxIntervalHaltingDuration="100.00" intervalHaltingDurationSum="500.00" startedHalts="0.00" meanVehicleNumber="5.00" maxVehicleNumber="5" />
   <interval begin="24900.00" end="25000.00" id="e2_L197#2_4_0" sampledSeconds="500.00" nVehEntered="0" nVehLeft="0" nVehSeen="5" meanSpeed="0.00" meanTimeLoss="100.00" meanOccupancy="68.05" maxOccupancy="68.05" meanMaxJamLengthInVehicles="5.00" meanMaxJamLengthInMeters="29.90" maxJamLengthInVehicles="5" maxJamLengthInMeters="29.90" jamLengthInVehiclesSum="500" jamLengthInMetersSum="2989.89" meanHaltingDuration="876.80" maxHaltingDuration="879.00" haltingDurationSum="4384.00" meanIntervalHaltingDuration="100.00" maxIntervalHaltingDuration="100.00" intervalHaltingDurationSum="500.00" startedHalts="0.00" meanVehicleNumber="5.00" maxVehicleNumber="5" />
   <interval begin="25000.00" end="25100.00" id="e2_L197#2_4_0" sampledSeconds="500.00" nVehEntered="0" nVehLeft="0" nVehSeen="5" meanSpeed="0.00" meanTimeLoss="100.00" meanOccupancy="68.05" maxOccupancy="68.05" meanMaxJamLengthInVehicles="5.00" meanMaxJamLengthInMeters="29.90" maxJamLengthInVehicles="5" maxJamLengthInMeters="29.90" jamLengthInVehiclesSum="500" jamLengthInMetersSum="2989.89" meanHaltingDuration="976.80" maxHaltingDuration="979.00" haltingDurationSum="4884.00" meanIntervalHaltingDuration="100.00" maxIntervalHaltingDuration="100.00" intervalHaltingDurationSum="500.00" startedHalts="0.00" meanVehicleNumber="5.00" maxVehicleNumber="5" />
   <interval begin="25100.00" end="25200.00" id="e2_L197#2_4_0" sampledSeconds="500.00" nVehEntered="0" nVehLeft="0" nVehSeen="5" meanSpeed="0.00" meanTimeLoss="100.00" meanOccupancy="68.05" maxOccupancy="68.05" meanMaxJamLengthInVehicles="5.00" meanMaxJamLengthInMeters="29.90" maxJamLengthInVehicles="5" maxJamLengthInMeters="29.90" jamLengthInVehiclesSum="500" jamLengthInMetersSum="2989.89" meanHaltingDuration="1076.80" maxHaltingDuration="1079.00" haltingDurationSum="5384.00" meanIntervalHaltingDuration="100.00" maxIntervalHaltingDuration="100.00" intervalHaltingDurationSum="500.00" startedHalts="0.00" meanVehicleNumber="5.00" maxVehicleNumber="5" />
   <interval begin="25200.00" end="25300.00" id="e2_L197#2_4_0" sampledSeconds="500.00" nVehEntered="0" nVehLeft="0" nVehSeen="5" meanSpeed="0.00" meanTimeLoss="100.00" meanOccupancy="68.05" maxOccupancy="68.05" meanMaxJamLengthInVehicles="5.00" meanMaxJamLengthInMeters="29.90" maxJamLengthInVehicles="5" maxJamLengthInMeters="29.90" jamLengthInVehiclesSum="500" jamLengthInMetersSum="2989.89" meanHaltingDuration="1176.80" maxHaltingDuration="1179.00" haltingDurationSum="5884.00" meanIntervalHaltingDuration="100.00" maxIntervalHaltingDuration="100.00" intervalHaltingDurationSum="500.00" startedHalts="0.00" meanVehicleNumber="5.00" maxVehicleNumber="5" />
   <interval begin="25300.00" end="25400.00" id="e2_L197#2_4_0" sampledSeconds="500.00" nVehEntered="0" nVehLeft="0" nVehSeen="5" meanSpeed="0.00" meanTimeLoss="100.00" meanOccupancy="68.05" maxOccupancy="68.05" meanMaxJamLengthInVehicles="5.00" meanMaxJamLengthInMeters="29.90" maxJamLengthInVehicles="5" maxJamLengthInMeters="29.90" jamLengthInVehiclesSum="500" jamLengthInMetersSum="2989.89" meanHaltingDuration="1276.80" maxHaltingDuration="1279.00" haltingDurationSum="6384.00" meanIntervalHaltingDuration="100.00" maxIntervalHaltingDuration="100.00" intervalHaltingDurationSum="500.00" startedHalts="0.00" meanVehicleNumber="5.00" maxVehicleNumber="5" />
   <interval begin="25400.00" end="25500.00" id="e2_L197#2_4_0" sampledSeconds="440.19" nVehEntered="6" nVehLeft="8" nVehSeen="11" meanSpeed="0.49" meanTimeLoss="38.43" meanOccupancy="59.81" maxOccupancy="68.05" meanMaxJamLengthInVehicles="3.47" meanMaxJamLengthInMeters="20.34" maxJamLengthInVehicles="5" maxJamLengthInMeters="30.82" jamLengthInVehiclesSum="351" jamLengthInMetersSum="2048.40" meanHaltingDuration="232.52" maxHaltingDuration="1306.00" haltingDurationSum="6743.00" meanIntervalHaltingDuration="12.38" maxIntervalHaltingDuration="32.00" intervalHaltingDurationSum="359.00" startedHalts="25.00" meanVehicleNumber="4.44" maxVehicleNumber="5" />
   <interval begin="25500.00" end="25600.00" id="e2_L197#2_4_0" sampledSeconds="459.25" nVehEntered="4" nVehLeft="4" nVehSeen="7" meanSpeed="0.28" meanTimeLoss="64.11" meanOccupancy="61.78" maxOccupancy="67.57" meanMaxJamLengthInVehicles="3.91" meanMaxJamLengthInMeters="22.74" maxJamLengthInVehicles="5" maxJamLengthInMeters="30.44" jamLengthInVehiclesSum="394" jamLengthInMetersSum="2281.57" meanHaltingDuration="18.28" maxHaltingDuration="53.00" haltingDurationSum="329.00" meanIntervalHaltingDuration="18.17" maxIntervalHaltingDuration="53.00" intervalHaltingDurationSum="327.00" startedHalts="21.00" meanVehicleNumber="4.61" maxVehicleNumber="5" />
   <interval begin="25600.00" end="25700.00" id="e2_L197#2_4_0" sampledSeconds="406.40" nVehEntered="12" nVehLeft="10" nVehSeen="15" meanSpeed="0.87" meanTimeLoss="25.22" meanOccupancy="54.92" maxOccupancy="65.05" meanMaxJamLengthInVehicles="2.87" meanMaxJamLengthInMeters="16.59" maxJamLengthInVehicles="5" maxJamLengthInMeters="29.00" jamLengthInVehiclesSum="287" jamLengthInMetersSum="1658.90" meanHaltingDuration="16.94" maxHaltingDuration="59.00" haltingDurationSum="305.00" meanIntervalHaltingDuration="16.78" maxIntervalHaltingDuration="59.00" intervalHaltingDurationSum="302.00" startedHalts="17.00" meanVehicleNumber="4.13" maxVehicleNumber="5" />
   <interval begin="25700.00" end="25800.00" id="e2_L197#2_4_0" sampledSeconds="500.00" nVehEntered="0" nVehLeft="0" nVehSeen="5" meanSpeed="0.00" meanTimeLoss="100.00" meanOccupancy="65.05" maxOccupancy="65.05" meanMaxJamLengthInVehicles="5.00" meanMaxJamLengthInMeters="29.00" maxJamLengthInVehicles="5" maxJamLengthInMeters="29.00" jamLengthInVehiclesSum="500" jamLengthInMetersSum="2899.89" meanHaltingDuration="155.60" maxHaltingDuration="159.00" haltingDurationSum="778.00" meanIntervalHaltingDuration="100.00" maxIntervalHaltingDuration="100.00" intervalHaltingDurationSum="500.00" startedHalts="0.00" meanVehicleNumber="5.00" maxVehicleNumber="5" />
   <interval begin="25800.00" end="25900.00" id="e2_L197#2_4_0" sampledSeconds="489.96" nVehEntered="1" nVehLeft="1" nVehSeen="6" meanSpeed="0.06" meanTimeLoss="81.25" meanOccupancy="64.13" maxOccupancy="65.05" meanMaxJamLengthInVehicles="4.79" meanMaxJamLengthInMeters="27.93" maxJamLengthInVehicles="5" maxJamLengthInMeters="30.52" jamLengthInVehiclesSum="480" jamLengthInMetersSum="2797.21" meanHaltingDuration="117.22" maxHaltingDuration="209.00" haltingDurationSum="1055.00" meanIntervalHaltingDuration="48.44" maxIntervalHaltingDuration="54.00" intervalHaltingDurationSum="436.00" startedHalts="5.00" meanVehicleNumber="4.90" maxVehicleNumber="5" />