<?xml version="1.0" encoding="UTF-8"?>

<!-- generated on Sun Feb 17 15:57:00 2019 by 
<configuration xmlns:xsi="http://www.w3.org/2001/XMLSchema-instance" xsi:noNamespaceSchemaLocation="http://sumo.dlr.de/xsd/Configuration.xsd">

    <input>
        <net-file value="/home/sda/Documents/sumo-sathorn-ray/models/sathorn-morning/sathorn_w_fixed_20160404.net.xml"/>
        <route-files value="/home/sda/Documents/sumo-sathorn-ray/models/sathorn-morning/Great-route/sathorn_w_20160422edit2.rou.xml"/>
        <additional-files value="/home/sda/Documents/sumo-sathorn-ray/models/sathorn-morning/sathon_wide_tls_20160418_edited.add.xml,/home/sda/Documents/sumo-sathorn-ray/detectors/sathorn_w_detectors.add.xml"/>
    </input>

    <time>
        <begin value="21600"/>
        <end value="32400"/>
        <step-length value="1"/>
    </time>

    <processing>
        <no-internal-links value="true"/>
        <ignore-junction-blocker value="-1"/>
        <time-to-teleport value="-1"/>
        <eager-insert value="true"/>
        <time-to-impatience value="300"/>
    </processing>

    <report>
        <no-warnings value="true"/>
    </report>

    <random_number>
        <random value="false"/>
        <seed value="20"/>
    </random_number>

    <gui_only>
        <gui-settings-file value="/home/sda/Documents/sumo-sathorn-ray/gui-settings/gui-settings-file-surasak.xml"/>
        <quit-on-end value="true"/>
        <start value="true"/>
        <tracker-interval value="1"/>
    </gui_only>

</configuration>
-->

<detector xmlns:xsi="http://www.w3.org/2001/XMLSchema-instance" xsi:noNamespaceSchemaLocation="http://sumo.dlr.de/xsd/det_e2_file.xsd">
   <interval begin="21600.00" end="21700.00" id="e2_L30_0_0" sampledSeconds="0.00" nVehEntered="0" nVehLeft="0" nVehSeen="0" meanSpeed="-1.00" meanTimeLoss="-1.00" meanOccupancy="0.00" maxOccupancy="0.00" meanMaxJamLengthInVehicles="0.00" meanMaxJamLengthInMeters="0.00" maxJamLengthInVehicles="0" maxJamLengthInMeters="0.00" jamLengthInVehiclesSum="0" jamLengthInMetersSum="0.00" meanHaltingDuration="0.00" maxHaltingDuration="0.00" haltingDurationSum="0.00" meanIntervalHaltingDuration="0.00" maxIntervalHaltingDuration="0.00" intervalHaltingDurationSum="0.00" startedHalts="0.00" meanVehicleNumber="0.00" maxVehicleNumber="0" />
   <interval begin="21700.00" end="21800.00" id="e2_L30_0_0" sampledSeconds="0.00" nVehEntered="0" nVehLeft="0" nVehSeen="0" meanSpeed="-1.00" meanTimeLoss="-1.00" meanOccupancy="0.00" maxOccupancy="0.00" meanMaxJamLengthInVehicles="0.00" meanMaxJamLengthInMeters="0.00" maxJamLengthInVehicles="0" maxJamLengthInMeters="0.00" jamLengthInVehiclesSum="0" jamLengthInMetersSum="0.00" meanHaltingDuration="0.00" maxHaltingDuration="0.00" haltingDurationSum="0.00" meanIntervalHaltingDuration="0.00" maxIntervalHaltingDuration="0.00" intervalHaltingDurationSum="0.00" startedHalts="0.00" meanVehicleNumber="0.00" maxVehicleNumber="0" />
   <interval begin="21800.00" end="21900.00" id="e2_L30_0_0" sampledSeconds="22.86" nVehEntered="7" nVehLeft="6" nVehSeen="7" meanSpeed="11.73" meanTimeLoss="0.20" meanOccupancy="1.96" maxOccupancy="21.64" meanMaxJamLengthInVehicles="0.00" meanMaxJamLengthInMeters="0.00" maxJamLengthInVehicles="0" maxJamLengthInMeters="0.00" jamLengthInVehiclesSum="0" jamLengthInMetersSum="0.00" meanHaltingDuration="0.00" maxHaltingDuration="0.00" haltingDurationSum="0.00" meanIntervalHaltingDuration="0.00" maxIntervalHaltingDuration="0.00" intervalHaltingDurationSum="0.00" startedHalts="0.00" meanVehicleNumber="0.30" maxVehicleNumber="3" />
   <interval begin="21900.00" end="22000.00" id="e2_L30_0_0" sampledSeconds="56.04" nVehEntered="16" nVehLeft="17" nVehSeen="17" meanSpeed="10.29" meanTimeLoss="0.58" meanOccupancy="4.67" maxOccupancy="24.97" meanMaxJamLengthInVehicles="0.00" meanMaxJamLengthInMeters="0.00" maxJamLengthInVehicles="0" maxJamLengthInMeters="0.00" jamLengthInVehiclesSum="0" jamLengthInMetersSum="0.00" meanHaltingDuration="0.00" maxHaltingDuration="0.00" haltingDurationSum="0.00" meanIntervalHaltingDuration="0.00" maxIntervalHaltingDuration="0.00" intervalHaltingDurationSum="0.00" startedHalts="1.00" meanVehicleNumber="0.72" maxVehicleNumber="5" />
   <interval begin="22000.00" end="22100.00" id="e2_L30_0_0" sampledSeconds="33.66" nVehEntered="8" nVehLeft="7" nVehSeen="8" meanSpeed="11.81" meanTimeLoss="0.23" meanOccupancy="2.90" maxOccupancy="16.04" meanMaxJamLengthInVehicles="0.00" meanMaxJamLengthInMeters="0.00" maxJamLengthInVehicles="0" maxJamLengthInMeters="0.00" jamLengthInVehiclesSum="0" jamLengthInMetersSum="0.00" meanHaltingDuration="0.00" maxHaltingDuration="0.00" haltingDurationSum="0.00" meanIntervalHaltingDuration="0.00" maxIntervalHaltingDuration="0.00" intervalHaltingDurationSum="0.00" startedHalts="0.00" meanVehicleNumber="0.41" maxVehicleNumber="2" />
   <interval begin="22100.00" end="22200.00" id="e2_L30_0_0" sampledSeconds="63.36" nVehEntered="16" nVehLeft="17" nVehSeen="17" meanSpeed="11.76" meanTimeLoss="0.22" meanOccupancy="4.97" maxOccupancy="18.48" meanMaxJamLengthInVehicles="0.00" meanMaxJamLengthInMeters="0.00" maxJamLengthInVehicles="0" maxJamLengthInMeters="0.00" jamLengthInVehiclesSum="0" jamLengthInMetersSum="0.00" meanHaltingDuration="0.00" maxHaltingDuration="0.00" haltingDurationSum="0.00" meanIntervalHaltingDuration="0.00" maxIntervalHaltingDuration="0.00" intervalHaltingDurationSum="0.00" startedHalts="0.00" meanVehicleNumber="0.77" maxVehicleNumber="2" />
   <interval begin="22200.00" end="22300.00" id="e2_L30_0_0" sampledSeconds="58.74" nVehEntered="14" nVehLeft="14" nVehSeen="14" meanSpeed="10.16" meanTimeLoss="0.79" meanOccupancy="4.86" maxOccupancy="18.48" meanMaxJamLengthInVehicles="0.00" meanMaxJamLengthInMeters="0.00" maxJamLengthInVehicles="0" maxJamLengthInMeters="0.00" jamLengthInVehiclesSum="0" jamLengthInMetersSum="0.00" meanHaltingDuration="0.00" maxHaltingDuration="0.00" haltingDurationSum="0.00" meanIntervalHaltingDuration="0.00" maxIntervalHaltingDuration="0.00" intervalHaltingDurationSum="0.00" startedHalts="1.00" meanVehicleNumber="0.71" maxVehicleNumber="4" />
   <interval begin="22300.00" end="22400.00" id="e2_L30_0_0" sampledSeconds="76.88" nVehEntered="18" nVehLeft="18" nVehSeen="18" meanSpeed="10.34" meanTimeLoss="0.73" meanOccupancy="6.06" maxOccupancy="27.72" meanMaxJamLengthInVehicles="0.00" meanMaxJamLengthInMeters="0.00" maxJamLengthInVehicles="0" maxJamLengthInMeters="0.00" jamLengthInVehiclesSum="0" jamLengthInMetersSum="0.00" meanHaltingDuration="0.00" maxHaltingDuration="0.00" haltingDurationSum="0.00" meanIntervalHaltingDuration="0.00" maxIntervalHaltingDuration="0.00" intervalHaltingDurationSum="0.00" startedHalts="0.00" meanVehicleNumber="0.91" maxVehicleNumber="5" />
   <interval begin="22400.00" end="22500.00" id="e2_L30_0_0" sampledSeconds="41.95" nVehEntered="10" nVehLeft="9" nVehSeen="10" meanSpeed="11.90" meanTimeLoss="0.20" meanOccupancy="3.53" maxOccupancy="18.48" meanMaxJamLengthInVehicles="0.00" meanMaxJamLengthInMeters="0.00" maxJamLengthInVehicles="0" maxJamLengthInMeters="0.00" jamLengthInVehiclesSum="0" jamLengthInMetersSum="0.00" meanHaltingDuration="0.00" maxHaltingDuration="0.00" haltingDurationSum="0.00" meanIntervalHaltingDuration="0.00" maxIntervalHaltingDuration="0.00" intervalHaltingDurationSum="0.00" startedHalts="0.00" meanVehicleNumber="0.51" maxVehicleNumber="2" />
   <interval begin="22500.00" end="22600.00" id="e2_L30_0_0" sampledSeconds="39.95" nVehEntered="8" nVehLeft="8" nVehSeen="9" meanSpeed="11.86" meanTimeLoss="0.23" meanOccupancy="3.45" maxOccupancy="9.24" meanMaxJamLengthInVehicles="0.00" meanMaxJamLengthInMeters="0.00" maxJamLengthInVehicles="0" maxJamLengthInMeters="0.00" jamLengthInVehiclesSum="0" jamLengthInMetersSum="0.00" meanHaltingDuration="0.00" maxHaltingDuration="0.00" haltingDurationSum="0.00" meanIntervalHaltingDuration="0.00" maxIntervalHaltingDuration="0.00" intervalHaltingDurationSum="0.00" startedHalts="0.00" meanVehicleNumber="0.50" maxVehicleNumber="1" />
   <interval begin="22600.00" end="22700.00" id="e2_L30_0_0" sampledSeconds="34.50" nVehEntered="8" nVehLeft="8" nVehSeen="9" meanSpeed="11.76" meanTimeLoss="0.23" meanOccupancy="2.97" maxOccupancy="9.24" meanMaxJamLengthInVehicles="0.00" meanMaxJamLengthInMeters="0.00" maxJamLengthInVehicles="0" maxJamLengthInMeters="0.00" jamLengthInVehiclesSum="0" jamLengthInMetersSum="0.00" meanHaltingDuration="0.00" maxHaltingDuration="0.00" haltingDurationSum="0.00" meanIntervalHaltingDuration="0.00" maxIntervalHaltingDuration="0.00" intervalHaltingDurationSum="0.00" startedHalts="0.00" meanVehicleNumber="0.44" maxVehicleNumber="1" />
   <interval begin="22700.00" end="22800.00" id="e2_L30_0_0" sampledSeconds="114.57" nVehEntered="31" nVehLeft="31" nVehSeen="32" meanSpeed="11.46" meanTimeLoss="0.29" meanOccupancy="9.73" maxOccupancy="25.87" meanMaxJamLengthInVehicles="0.00" meanMaxJamLengthInMeters="0.00" maxJamLengthInVehicles="0" maxJamLengthInMeters="0.00" jamLengthInVehiclesSum="0" jamLengthInMetersSum="0.00" meanHaltingDuration="0.00" maxHaltingDuration="0.00" haltingDurationSum="0.00" meanIntervalHaltingDuration="0.00" maxIntervalHaltingDuration="0.00" intervalHaltingDurationSum="0.00" startedHalts="0.00" meanVehicleNumber="1.41" maxVehicleNumber="4" />
   <interval begin="22800.00" end="22900.00" id="e2_L30_0_0" sampledSeconds="190.72" nVehEntered="44" nVehLeft="42" nVehSeen="45" meanSpeed="10.39" meanTimeLoss="0.72" meanOccupancy="16.52" maxOccupancy="28.91" meanMaxJamLengthInVehicles="0.00" meanMaxJamLengthInMeters="0.00" maxJamLengthInVehicles="0" maxJamLengthInMeters="0.00" jamLengthInVehiclesSum="0" jamLengthInMetersSum="0.00" meanHaltingDuration="0.00" maxHaltingDuration="0.00" haltingDurationSum="0.00" meanIntervalHaltingDuration="0.00" maxIntervalHaltingDuration="0.00" intervalHaltingDurationSum="0.00" startedHalts="1.00" meanVehicleNumber="2.34" maxVehicleNumber="4" />
   <interval begin="22900.00" end="23000.00" id="e2_L30_0_0" sampledSeconds="190.53" nVehEntered="40" nVehLeft="42" nVehSeen="43" meanSpeed="9.70" meanTimeLoss="0.98" meanOccupancy="15.91" maxOccupancy="36.88" meanMaxJamLengthInVehicles="0.00" meanMaxJamLengthInMeters="0.00" maxJamLengthInVehicles="0" maxJamLengthInMeters="0.00" jamLengthInVehiclesSum="0" jamLengthInMetersSum="0.00" meanHaltingDuration="0.00" maxHaltingDuration="0.00" haltingDurationSum="0.00" meanIntervalHaltingDuration="0.00" maxIntervalHaltingDuration="0.00" intervalHaltingDurationSum="0.00" startedHalts="1.00" meanVehicleNumber="2.27" maxVehicleNumber="5" />
   <interval begin="23000.00" end="23100.00" id="e2_L30_0_0" sampledSeconds="115.05" nVehEntered="29" nVehLeft="27" nVehSeen="30" meanSpeed="11.61" meanTimeLoss="0.27" meanOccupancy="10.09" maxOccupancy="30.87" meanMaxJamLengthInVehicles="0.00" meanMaxJamLengthInMeters="0.00" maxJamLengthInVehicles="0" maxJamLengthInMeters="0.00" jamLengthInVehiclesSum="0" jamLengthInMetersSum="0.00" meanHaltingDuration="0.00" maxHaltingDuration="0.00" haltingDurationSum="0.00" meanIntervalHaltingDuration="0.00" maxIntervalHaltingDuration="0.00" intervalHaltingDurationSum="0.00" startedHalts="0.00" meanVehicleNumber="1.44" maxVehicleNumber="4" />
   <interval begin="23100.00" end="23200.00" id="e2_L30_0_0" sampledSeconds="259.37" nVehEntered="66" nVehLeft="67" nVehSeen="69" meanSpeed="9.26" meanTimeLoss="0.97" meanOccupancy="21.77" maxOccupancy="36.31" meanMaxJamLengthInVehicles="0.00" meanMaxJamLengthInMeters="0.00" maxJamLengthInVehicles="0" maxJamLengthInMeters="0.00" jamLengthInVehiclesSum="0" jamLengthInMetersSum="0.00" meanHaltingDuration="1.00" maxHaltingDuration="1.00" haltingDurationSum="3.00" meanIntervalHaltingDuration="1.00" maxIntervalHaltingDuration="1.00" intervalHaltingDurationSum="3.00" startedHalts="4.00" meanVehicleNumber="3.13" maxVehicleNumber="5" />
   <interval begin="23200.00" end="23300.00" id="e2_L30_0_0" sampledSeconds="191.10" nVehEntered="43" nVehLeft="43" nVehSeen="45" meanSpeed="10.36" meanTimeLoss="0.70" meanOccupancy="16.31" maxOccupancy="34.59" meanMaxJamLengthInVehicles="0.00" meanMaxJamLengthInMeters="0.00" maxJamLengthInVehicles="0" maxJamLengthInMeters="0.00" jamLengthInVehiclesSum="0" jamLengthInMetersSum="0.00" meanHaltingDuration="0.00" maxHaltingDuration="0.00" haltingDurationSum="0.00" meanIntervalHaltingDuration="0.00" maxIntervalHaltingDuration="0.00" intervalHaltingDurationSum="0.00" startedHalts="0.00" meanVehicleNumber="2.28" maxVehicleNumber="4" />
   <interval begin="23300.00" end="23400.00" id="e2_L30_0_0" sampledSeconds="268.17" nVehEntered="41" nVehLeft="41" nVehSeen="43" meanSpeed="5.85" meanTimeLoss="3.31" meanOccupancy="23.16" maxOccupancy="45.48" meanMaxJamLengthInVehicles="0.54" meanMaxJamLengthInMeters="2.80" maxJamLengthInVehicles="3" maxJamLengthInMeters="19.01" jamLengthInVehiclesSum="54" jamLengthInMetersSum="279.58" meanHaltingDuration="6.55" maxHaltingDuration="26.00" haltingDurationSum="59.00" meanIntervalHaltingDuration="6.55" maxIntervalHaltingDuration="26.00" intervalHaltingDurationSum="59.00" startedHalts="10.00" meanVehicleNumber="2.96" maxVehicleNumber="5" />
   <interval begin="23400.00" end="23500.00" id="e2_L30_0_0" sampledSeconds="358.65" nVehEntered="32" nVehLeft="32" nVehSeen="34" meanSpeed="2.28" meanTimeLoss="8.63" meanOccupancy="31.31" maxOccupancy="63.26" meanMaxJamLengthInVehicles="1.64" meanMaxJamLengthInMeters="10.47" maxJamLengthInVehicles="7" maxJamLengthInMeters="49.08" jamLengthInVehiclesSum="166" jamLengthInMetersSum="1052.96" meanHaltingDuration="7.60" maxHaltingDuration="36.00" haltingDurationSum="190.00" meanIntervalHaltingDuration="7.60" maxIntervalHaltingDuration="36.00" intervalHaltingDurationSum="190.00" startedHalts="26.00" meanVehicleNumber="3.83" maxVehicleNumber="8" />
   <interval begin="23500.00" end="23600.00" id="e2_L30_0_0" sampledSeconds="338.89" nVehEntered="13" nVehLeft="15" nVehSeen="15" meanSpeed="1.27" meanTimeLoss="20.30" meanOccupancy="29.91" maxOccupancy="63.28" meanMaxJamLengthInVehicles="2.23" meanMaxJamLengthInMeters="13.83" maxJamLengthInVehicles="6" maxJamLengthInMeters="39.94" jamLengthInVehiclesSum="223" jamLengthInMetersSum="1383.27" meanHaltingDuration="10.29" maxHaltingDuration="61.00" haltingDurationSum="247.00" meanIntervalHaltingDuration="10.29" maxIntervalHaltingDuration="61.00" intervalHaltingDurationSum="247.00" startedHalts="24.00" meanVehicleNumber="3.48" maxVehicleNumber="7" />
   <interval begin="23600.00" end="23700.00" id="e2_L30_0_0" sampledSeconds="81.00" nVehEntered="20" nVehLeft="20" nVehSeen="20" meanSpeed="11.61" meanTimeLoss="0.26" meanOccupancy="6.70" maxOccupancy="18.48" meanMaxJamLengthInVehicles="0.00" meanMaxJamLengthInMeters="0.00" maxJamLengthInVehicles="0" maxJamLengthInMeters="0.00" jamLengthInVehiclesSum="0" jamLengthInMetersSum="0.00" meanHaltingDuration="0.00" maxHaltingDuration="0.00" haltingDurationSum="0.00" meanIntervalHaltingDuration="0.00" maxIntervalHaltingDuration="0.00" intervalHaltingDurationSum="0.00" startedHalts="0.00" meanVehicleNumber="0.98" maxVehicleNumber="3" />
   <interval begin="23700.00" end="23800.00" id="e2_L30_0_0" sampledSeconds="56.95" nVehEntered="13" nVehLeft="13" nVehSeen="13" meanSpeed="11.77" meanTimeLoss="0.26" meanOccupancy="4.53" maxOccupancy="18.48" meanMaxJamLengthInVehicles="0.00" meanMaxJamLengthInMeters="0.00" maxJamLengthInVehicles="0" maxJamLengthInMeters="0.00" jamLengthInVehiclesSum="0" jamLengthInMetersSum="0.00" meanHaltingDuration="0.00" maxHaltingDuration="0.00" haltingDurationSum="0.00" meanIntervalHaltingDuration="0.00" maxIntervalHaltingDuration="0.00" intervalHaltingDurationSum="0.00" startedHalts="0.00" meanVehicleNumber="0.68" maxVehicleNumber="3" />
   <interval begin="23800.00" end="23900.00" id="e2_L30_0_0" sampledSeconds="62.93" nVehEntered="16" nVehLeft="15" nVehSeen="16" meanSpeed="10.56" meanTimeLoss="0.61" meanOccupancy="5.08" maxOccupancy="27.72" meanMaxJamLengthInVehicles="0.00" meanMaxJamLengthInMeters="0.00" maxJamLengthInVehicles="0" maxJamLengthInMeters="0.00" jamLengthInVehiclesSum="0" jamLengthInMetersSum="0.00" meanHaltingDuration="0.00" maxHaltingDuration="0.00" haltingDurationSum="0.00" meanIntervalHaltingDuration="0.00" maxIntervalHaltingDuration="0.00" intervalHaltingDurationSum="0.00" startedHalts="1.00" meanVehicleNumber="0.77" maxVehicleNumber="4" />
   <interval begin="23900.00" end="24000.00" id="e2_L30_0_0" sampledSeconds="90.58" nVehEntered="24" nVehLeft="25" nVehSeen="25" meanSpeed="10.58" meanTimeLoss="0.55" meanOccupancy="7.23" maxOccupancy="40.88" meanMaxJamLengthInVehicles="0.00" meanMaxJamLengthInMeters="0.00" maxJamLengthInVehicles="0" maxJamLengthInMeters="0.00" jamLengthInVehiclesSum="0" jamLengthInMetersSum="0.00" meanHaltingDuration="1.00" maxHaltingDuration="1.00" haltingDurationSum="1.00" meanIntervalHaltingDuration="1.00" maxIntervalHaltingDuration="1.00" intervalHaltingDurationSum="1.00" startedHalts="4.00" meanVehicleNumber="1.10" maxVehicleNumber="7" />
   <interval begin="24000.00" end="24100.00" id="e2_L30_0_0" sampledSeconds="121.48" nVehEntered="39" nVehLeft="38" nVehSeen="39" meanSpeed="11.77" meanTimeLoss="0.17" meanOccupancy="9.91" maxOccupancy="27.72" meanMaxJamLengthInVehicles="0.00" meanMaxJamLengthInMeters="0.00" maxJamLengthInVehicles="0" maxJamLengthInMeters="0.00" jamLengthInVehiclesSum="0" jamLengthInMetersSum="0.00" meanHaltingDuration="0.00" maxHaltingDuration="0.00" haltingDurationSum="0.00" meanIntervalHaltingDuration="0.00" maxIntervalHaltingDuration="0.00" intervalHaltingDurationSum="0.00" startedHalts="0.00" meanVehicleNumber="1.48" maxVehicleNumber="4" />
   <interval begin="24100.00" end="24200.00" id="e2_L30_0_0" sampledSeconds="173.50" nVehEntered="35" nVehLeft="36" nVehSeen="36" meanSpeed="7.58" meanTimeLoss="1.89" meanOccupancy="14.29" maxOccupancy="39.80" meanMaxJamLengthInVehicles="0.25" meanMaxJamLengthInMeters="1.34" maxJamLengthInVehicles="2" maxJamLengthInMeters="13.49" jamLengthInVehiclesSum="25" jamLengthInMetersSum="134.30" meanHaltingDuration="7.25" maxHaltingDuration="16.00" haltingDurationSum="29.00" meanIntervalHaltingDuration="7.25" maxIntervalHaltingDuration="16.00" intervalHaltingDurationSum="29.00" startedHalts="4.00" meanVehicleNumber="1.95" maxVehicleNumber="6" />
   <interval begin="24200.00" end="24300.00" id="e2_L30_0_0" sampledSeconds="58.52" nVehEntered="18" nVehLeft="18" nVehSeen="18" meanSpeed="11.71" meanTimeLoss="0.17" meanOccupancy="4.40" maxOccupancy="27.72" meanMaxJamLengthInVehicles="0.00" meanMaxJamLengthInMeters="0.00" maxJamLengthInVehicles="0" maxJamLengthInMeters="0.00" jamLengthInVehiclesSum="0" jamLengthInMetersSum="0.00" meanHaltingDuration="0.00" maxHaltingDuration="0.00" haltingDurationSum="0.00" meanIntervalHaltingDuration="0.00" maxIntervalHaltingDuration="0.00" intervalHaltingDurationSum="0.00" startedHalts="0.00" meanVehicleNumber="0.70" maxVehicleNumber="3" />
   <interval begin="24300.00" end="24400.00" id="e2_L30_0_0" sampledSeconds="79.05" nVehEntered="26" nVehLeft="26" nVehSeen="26" meanSpeed="11.68" meanTimeLoss="0.19" meanOccupancy="5.96" maxOccupancy="22.52" meanMaxJamLengthInVehicles="0.00" meanMaxJamLengthInMeters="0.00" maxJamLengthInVehicles="0" maxJamLengthInMeters="0.00" jamLengthInVehiclesSum="0" jamLengthInMetersSum="0.00" meanHaltingDuration="0.00" maxHaltingDuration="0.00" haltingDurationSum="0.00" meanIntervalHaltingDuration="0.00" maxIntervalHaltingDuration="0.00" intervalHaltingDurationSum="0.00" startedHalts="0.00" meanVehicleNumber="0.94" maxVehicleNumber="4" />
   <interval begin="24400.00" end="24500.00" id="e2_L30_0_0" sampledSeconds="44.79" nVehEntered="11" nVehLeft="11" nVehSeen="11" meanSpeed="11.77" meanTimeLoss="0.22" meanOccupancy="3.25" maxOccupancy="18.48" meanMaxJamLengthInVehicles="0.00" meanMaxJamLengthInMeters="0.00" maxJamLengthInVehicles="0" maxJamLengthInMeters="0.00" jamLengthInVehiclesSum="0" jamLengthInMetersSum="0.00" meanHaltingDuration="0.00" maxHaltingDuration="0.00" haltingDurationSum="0.00" meanIntervalHaltingDuration="0.00" maxIntervalHaltingDuration="0.00" intervalHaltingDurationSum="0.00" startedHalts="0.00" meanVehicleNumber="0.53" maxVehicleNumber="2" />
   <interval begin="24500.00" end="24600.00" id="e2_L30_0_0" sampledSeconds="78.59" nVehEntered="24" nVehLeft="21" nVehSeen="24" meanSpeed="11.77" meanTimeLoss="0.19" meanOccupancy="6.02" maxOccupancy="27.72" meanMaxJamLengthInVehicles="0.00" meanMaxJamLengthInMeters="0.00" maxJamLengthInVehicles="0" maxJamLengthInMeters="0.00" jamLengthInVehiclesSum="0" jamLengthInMetersSum="0.00" meanHaltingDuration="0.00" maxHaltingDuration="0.00" haltingDurationSum="0.00" meanIntervalHaltingDuration="0.00" maxIntervalHaltingDuration="0.00" intervalHaltingDurationSum="0.00" startedHalts="0.00" meanVehicleNumber="0.93" maxVehicleNumber="3" />
   <interval begin="24600.00" end="24700.00" id="e2_L30_0_0" sampledSeconds="203.57" nVehEntered="54" nVehLeft="55" nVehSeen="57" meanSpeed="10.95" meanTimeLoss="0.44" meanOccupancy="17.48" maxOccupancy="36.96" meanMaxJamLengthInVehicles="0.01" meanMaxJamLengthInMeters="0.04" maxJamLengthInVehicles="1" maxJamLengthInMeters="4.21" jamLengthInVehiclesSum="1" jamLengthInMetersSum="4.21" meanHaltingDuration="0.00" maxHaltingDuration="0.00" haltingDurationSum="0.00" meanIntervalHaltingDuration="0.00" maxIntervalHaltingDuration="0.00" intervalHaltingDurationSum="0.00" startedHalts="1.00" meanVehicleNumber="2.38" maxVehicleNumber="5" />
   <interval begin="24700.00" end="24800.00" id="e2_L30_0_0" sampledSeconds="640.42" nVehEntered="19" nVehLeft="16" nVehSeen="21" meanSpeed="0.76" meanTimeLoss="28.64" meanOccupancy="54.69" maxOccupancy="66.81" meanMaxJamLengthInVehicles="5.15" meanMaxJamLengthInMeters="32.95" maxJamLengthInVehicles="8" maxJamLengthInMeters="52.73" jamLengthInVehiclesSum="515" jamLengthInMetersSum="3294.96" meanHaltingDuration="34.71" maxHaltingDuration="79.00" haltingDurationSum="486.00" meanIntervalHaltingDuration="34.71" maxIntervalHaltingDuration="79.00" intervalHaltingDurationSum="486.00" startedHalts="17.00" meanVehicleNumber="6.51" maxVehicleNumber="8" />
   <interval begin="24800.00" end="24900.00" id="e2_L30_0_0" sampledSeconds="516.39" nVehEntered="27" nVehLeft="25" nVehSeen="32" meanSpeed="1.71" meanTimeLoss="13.93" meanOccupancy="46.36" maxOccupancy="64.27" meanMaxJamLengthInVehicles="2.95" meanMaxJamLengthInMeters="19.34" maxJamLengthInVehicles="7" maxJamLengthInMeters="46.83" jamLengthInVehiclesSum="295" jamLengthInMetersSum="1933.51" meanHaltingDuration="16.53" maxHaltingDuration="43.00" haltingDurationSum="314.00" meanIntervalHaltingDuration="16.53" maxIntervalHaltingDuration="43.00" intervalHaltingDurationSum="314.00" startedHalts="20.00" meanVehicleNumber="5.36" maxVehicleNumber="7" />
   <interval begin="24900.00" end="25000.00" id="e2_L30_0_0" sampledSeconds="700.00" nVehEntered="0" nVehLeft="0" nVehSeen="7" meanSpeed="0.00" meanTimeLoss="99.97" meanOccupancy="63.24" maxOccupancy="63.54" meanMaxJamLengthInVehicles="7.00" meanMaxJamLengthInMeters="46.60" maxJamLengthInVehicles="7" maxJamLengthInMeters="46.94" jamLengthInVehiclesSum="700" jamLengthInMetersSum="4660.05" meanHaltingDuration="136.00" maxHaltingDuration="143.00" haltingDurationSum="952.00" meanIntervalHaltingDuration="100.00" maxIntervalHaltingDuration="100.00" intervalHaltingDurationSum="700.00" startedHalts="0.00" meanVehicleNumber="7.00" maxVehicleNumber="7" />
   <interval begin="25000.00" end="25100.00" id="e2_L30_0_0" sampledSeconds="191.17" nVehEntered="1" nVehLeft="8" nVehSeen="8" meanSpeed="0.78" meanTimeLoss="22.39" meanOccupancy="16.74" maxOccupancy="63.23" meanMaxJamLengthInVehicles="1.45" meanMaxJamLengthInMeters="9.58" maxJamLengthInVehicles="7" maxJamLengthInMeters="47.83" jamLengthInVehiclesSum="147" jamLengthInMetersSum="967.64" meanHaltingDuration="92.00" maxHaltingDuration="160.00" haltingDurationSum="1104.00" meanIntervalHaltingDuration="12.67" maxIntervalHaltingDuration="25.00" intervalHaltingDurationSum="152.00" startedHalts="6.00" meanVehicleNumber="1.96" maxVehicleNumber="7" />
   <interval begin="25100.00" end="25200.00" id="e2_L30_0_0" sampledSeconds="9.18" nVehEntered="5" nVehLeft="4" nVehSeen="5" meanSpeed="11.60" meanTimeLoss="0.13" meanOccupancy="0.68" maxOccupancy="9.24" meanMaxJamLengthInVehicles="0.00" meanMaxJamLengthInMeters="0.00" maxJamLengthInVehicles="0" maxJamLengthInMeters="0.00" jamLengthInVehiclesSum="0" jamLengthInMetersSum="0.00" meanHaltingDuration="0.00" maxHaltingDuration="0.00" haltingDurationSum="0.00" meanIntervalHaltingDuration="0.00" maxIntervalHaltingDuration="0.00" intervalHaltingDurationSum="0.00" startedHalts="0.00" meanVehicleNumber="0.11" maxVehicleNumber="1" />
   <interval begin="25200.00" end="25300.00" id="e2_L30_0_0" sampledSeconds="99.12" nVehEntered="6" nVehLeft="3" nVehSeen="7" meanSpeed="0.77" meanTimeLoss="13.29" meanOccupancy="8.53" maxOccupancy="35.80" meanMaxJamLengthInVehicles="0.76" meanMaxJamLengthInMeters="4.44" maxJamLengthInVehicles="4" maxJamLengthInMeters="25.71" jamLengthInVehiclesSum="76" jamLengthInMetersSum="444.20" meanHaltingDuration="13.67" maxHaltingDuration="35.00" haltingDurationSum="82.00" meanIntervalHaltingDuration="13.67" maxIntervalHaltingDuration="35.00" intervalHaltingDurationSum="82.00" startedHalts="6.00" meanVehicleNumber="1.01" maxVehicleNumber="4" />
   <interval begin="25300.00" end="25400.00" id="e2_L30_0_0" sampledSeconds="336.65" nVehEntered="3" nVehLeft="7" nVehSeen="7" meanSpeed="0.24" meanTimeLoss="47.18" meanOccupancy="29.37" maxOccupancy="35.80" meanMaxJamLengthInVehicles="3.15" meanMaxJamLengthInMeters="20.25" maxJamLengthInVehicles="4" maxJamLengthInMeters="28.59" jamLengthInVehiclesSum="315" jamLengthInMetersSum="2025.13" meanHaltingDuration="57.00" maxHaltingDuration="100.00" haltingDurationSum="285.00" meanIntervalHaltingDuration="48.00" maxIntervalHaltingDuration="81.00" intervalHaltingDurationSum="240.00" startedHalts="2.00" meanVehicleNumber="3.40" maxVehicleNumber="4" />
   <interval begin="25400.00" end="25500.00" id="e2_L30_0_0" sampledSeconds="154.49" nVehEntered="59" nVehLeft="55" nVehSeen="59" meanSpeed="8.01" meanTimeLoss="0.94" meanOccupancy="11.54" maxOccupancy="41.50" meanMaxJamLengthInVehicles="0.00" meanMaxJamLengthInMeters="0.00" maxJamLengthInVehicles="0" maxJamLengthInMeters="0.00" jamLengthInVehiclesSum="0" jamLengthInMetersSum="0.00" meanHaltingDuration="1.00" maxHaltingDuration="1.00" haltingDurationSum="2.00" meanIntervalHaltingDuration="1.00" maxIntervalHaltingDuration="1.00" intervalHaltingDurationSum="2.00" startedHalts="8.00" meanVehicleNumber="1.77" maxVehicleNumber="8" />
   <interval begin="25500.00" end="25600.00" id="e2_L30_0_0" sampledSeconds="83.31" nVehEntered="22" nVehLeft="24" nVehSeen="26" meanSpeed="7.15" meanTimeLoss="1.37" meanOccupancy="6.19" maxOccupancy="36.96" meanMaxJamLengthInVehicles="0.00" meanMaxJamLengthInMeters="0.00" maxJamLengthInVehicles="0" maxJamLengthInMeters="0.00" jamLengthInVehiclesSum="0" jamLengthInMetersSum="0.00" meanHaltingDuration="1.00" maxHaltingDuration="1.00" haltingDurationSum="3.00" meanIntervalHaltingDuration="1.00" maxIntervalHaltingDuration="1.00" intervalHaltingDurationSum="3.00" startedHalts="8.00" meanVehicleNumber="0.97" maxVehicleNumber="6" />
   <interval begin="25600.00" end="25700.00" id="e2_L30_0_0" sampledSeconds="183.54" nVehEntered="53" nVehLeft="54" nVehSeen="55" meanSpeed="6.19" meanTimeLoss="1.68" meanOccupancy="14.37" maxOccupancy="42.15" meanMaxJamLengthInVehicles="0.23" meanMaxJamLengthInMeters="1.26" maxJamLengthInVehicles="2" maxJamLengthInMeters="13.30" jamLengthInVehiclesSum="23" jamLengthInMetersSum="126.49" meanHaltingDuration="3.20" maxHaltingDuration="10.00" haltingDurationSum="16.00" meanIntervalHaltingDuration="3.20" maxIntervalHaltingDuration="10.00" intervalHaltingDurationSum="16.00" startedHalts="11.00" meanVehicleNumber="2.08" maxVehicleNumber="7" />
   <interval begin="25700.00" end="25800.00" id="e2_L30_0_0" sampledSeconds="30.16" nVehEntered="17" nVehLeft="18" nVehSeen="18" meanSpeed="11.57" meanTimeLoss="0.12" meanOccupancy="2.11" maxOccupancy="18.48" meanMaxJamLengthInVehicles="0.00" meanMaxJamLengthInMeters="0.00" maxJamLengthInVehicles="0" maxJamLengthInMeters="0.00" jamLengthInVehiclesSum="0" jamLengthInMetersSum="0.00" meanHaltingDuration="0.00" maxHaltingDuration="0.00" haltingDurationSum="0.00" meanIntervalHaltingDuration="0.00" maxIntervalHaltingDuration="0.00" intervalHaltingDurationSum="0.00" startedHalts="0.00" meanVehicleNumber="0.36" maxVehicleNumber="3" />
   <interval begin="25800.00" end="25900.00" id="e2_L30_0_0" sampledSeconds="138.50" nVehEntered="14" nVehLeft="14" nVehSeen="14" meanSpeed="1.91" meanTimeLoss="8.39" meanOccupancy="11.17" maxOccupancy="35.55" meanMaxJamLengthInVehicles="0.67" meanMaxJamLengthInMeters="3.60" maxJamLengthInVehicles="3" maxJamLengthInMeters="19.16" jamLengthInVehiclesSum="67" jamLengthInMetersSum="359.94" meanHaltingDuration="6.58" maxHaltingDuration="33.00" haltingDurationSum="79.00" meanIntervalHaltingDuration="6.58" maxIntervalHaltingDuration="33.00" intervalHaltingDurationSum="79.00" startedHalts="14.00" meanVehicleNumber="1.45" maxVehicleNumber="7" />
   <interval begin="25900.00" end="26000.00" id="e2_L30_0_0" sampledSeconds="3.91" nVehEntered="1" nVehLeft="1" nVehSeen="1" meanSpeed="12.18" meanTimeLoss="0.10" meanOccupancy="0.28" maxOccupancy="9.24" meanMaxJamLengthInVehicles="0.00" meanMaxJamLengthInMeters="0.00" maxJamLengthInVehicles="0" maxJamLengthInMeters="0.00" jamLengthInVehiclesSum="0" jamLengthInMetersSum="0.00" meanHaltingDuration="0.00" maxHaltingDuration="0.00" haltingDurationSum="0.00" meanIntervalHaltingDuration="0.00" maxIntervalHaltingDuration="0.00" intervalHaltingDurationSum="0.00" startedHalts="0.00" meanVehicleNumber="0.04" maxVehicleNumber="1" />