<?xml version="1.0" encoding="UTF-8"?>

<!-- generated on Sun Feb 17 15:57:00 2019 by 
<configuration xmlns:xsi="http://www.w3.org/2001/XMLSchema-instance" xsi:noNamespaceSchemaLocation="http://sumo.dlr.de/xsd/Configuration.xsd">

    <input>
        <net-file value="/home/sda/Documents/sumo-sathorn-ray/models/sathorn-morning/sathorn_w_fixed_20160404.net.xml"/>
        <route-files value="/home/sda/Documents/sumo-sathorn-ray/models/sathorn-morning/Great-route/sathorn_w_20160422edit2.rou.xml"/>
        <additional-files value="/home/sda/Documents/sumo-sathorn-ray/models/sathorn-morning/sathon_wide_tls_20160418_edited.add.xml,/home/sda/Documents/sumo-sathorn-ray/detectors/sathorn_w_detectors.add.xml"/>
    </input>

    <time>
        <begin value="21600"/>
        <end value="32400"/>
        <step-length value="1"/>
    </time>

    <processing>
        <no-internal-links value="true"/>
        <ignore-junction-blocker value="-1"/>
        <time-to-teleport value="-1"/>
        <eager-insert value="true"/>
        <time-to-impatience value="300"/>
    </processing>

    <report>
        <no-warnings value="true"/>
    </report>

    <random_number>
        <random value="false"/>
        <seed value="20"/>
    </random_number>

    <gui_only>
        <gui-settings-file value="/home/sda/Documents/sumo-sathorn-ray/gui-settings/gui-settings-file-surasak.xml"/>
        <quit-on-end value="true"/>
        <start value="true"/>
        <tracker-interval value="1"/>
    </gui_only>

</configuration>
-->

<detector xmlns:xsi="http://www.w3.org/2001/XMLSchema-instance" xsi:noNamespaceSchemaLocation="http://sumo.dlr.de/xsd/det_e2_file.xsd">
   <interval begin="21600.00" end="21700.00" id="e2_L40_3_0" sampledSeconds="0.00" nVehEntered="0" nVehLeft="0" nVehSeen="0" meanSpeed="-1.00" meanTimeLoss="-1.00" meanOccupancy="0.00" maxOccupancy="0.00" meanMaxJamLengthInVehicles="0.00" meanMaxJamLengthInMeters="0.00" maxJamLengthInVehicles="0" maxJamLengthInMeters="0.00" jamLengthInVehiclesSum="0" jamLengthInMetersSum="0.00" meanHaltingDuration="0.00" maxHaltingDuration="0.00" haltingDurationSum="0.00" meanIntervalHaltingDuration="0.00" maxIntervalHaltingDuration="0.00" intervalHaltingDurationSum="0.00" startedHalts="0.00" meanVehicleNumber="0.00" maxVehicleNumber="0" />
   <interval begin="21700.00" end="21800.00" id="e2_L40_3_0" sampledSeconds="0.00" nVehEntered="0" nVehLeft="0" nVehSeen="0" meanSpeed="-1.00" meanTimeLoss="-1.00" meanOccupancy="0.00" maxOccupancy="0.00" meanMaxJamLengthInVehicles="0.00" meanMaxJamLengthInMeters="0.00" maxJamLengthInVehicles="0" maxJamLengthInMeters="0.00" jamLengthInVehiclesSum="0" jamLengthInMetersSum="0.00" meanHaltingDuration="0.00" maxHaltingDuration="0.00" haltingDurationSum="0.00" meanIntervalHaltingDuration="0.00" maxIntervalHaltingDuration="0.00" intervalHaltingDurationSum="0.00" startedHalts="0.00" meanVehicleNumber="0.00" maxVehicleNumber="0" />
   <interval begin="21800.00" end="21900.00" id="e2_L40_3_0" sampledSeconds="84.42" nVehEntered="4" nVehLeft="0" nVehSeen="4" meanSpeed="0.76" meanTimeLoss="19.82" meanOccupancy="13.03" maxOccupancy="61.60" meanMaxJamLengthInVehicles="0.70" meanMaxJamLengthInMeters="4.11" maxJamLengthInVehicles="3" maxJamLengthInMeters="18.67" jamLengthInVehiclesSum="70" jamLengthInMetersSum="411.31" meanHaltingDuration="24.33" maxHaltingDuration="34.00" haltingDurationSum="73.00" meanIntervalHaltingDuration="24.33" maxIntervalHaltingDuration="34.00" intervalHaltingDurationSum="73.00" startedHalts="3.00" meanVehicleNumber="0.86" maxVehicleNumber="4" />
   <interval begin="21900.00" end="22000.00" id="e2_L40_3_0" sampledSeconds="477.69" nVehEntered="1" nVehLeft="0" nVehSeen="5" meanSpeed="0.01" meanTimeLoss="95.48" meanOccupancy="64.29" maxOccupancy="65.05" meanMaxJamLengthInVehicles="4.74" meanMaxJamLengthInMeters="28.04" maxJamLengthInVehicles="5" maxJamLengthInMeters="29.00" jamLengthInVehiclesSum="474" jamLengthInMetersSum="2804.23" meanHaltingDuration="109.80" maxHaltingDuration="134.00" haltingDurationSum="549.00" meanIntervalHaltingDuration="95.20" maxIntervalHaltingDuration="100.00" intervalHaltingDurationSum="476.00" startedHalts="2.00" meanVehicleNumber="4.78" maxVehicleNumber="5" />
   <interval begin="22000.00" end="22100.00" id="e2_L40_3_0" sampledSeconds="500.00" nVehEntered="0" nVehLeft="0" nVehSeen="5" meanSpeed="0.00" meanTimeLoss="100.00" meanOccupancy="65.05" maxOccupancy="65.05" meanMaxJamLengthInVehicles="5.00" meanMaxJamLengthInMeters="29.00" maxJamLengthInVehicles="5" maxJamLengthInMeters="29.00" jamLengthInVehiclesSum="500" jamLengthInMetersSum="2899.90" meanHaltingDuration="209.80" maxHaltingDuration="234.00" haltingDurationSum="1049.00" meanIntervalHaltingDuration="100.00" maxIntervalHaltingDuration="100.00" intervalHaltingDurationSum="500.00" startedHalts="0.00" meanVehicleNumber="5.00" maxVehicleNumber="5" />
   <interval begin="22100.00" end="22200.00" id="e2_L40_3_0" sampledSeconds="472.26" nVehEntered="3" nVehLeft="3" nVehSeen="8" meanSpeed="0.21" meanTimeLoss="58.05" meanOccupancy="62.10" maxOccupancy="65.05" meanMaxJamLengthInVehicles="4.34" meanMaxJamLengthInMeters="25.11" maxJamLengthInVehicles="5" maxJamLengthInMeters="29.99" jamLengthInVehiclesSum="435" jamLengthInMetersSum="2513.78" meanHaltingDuration="99.60" maxHaltingDuration="280.00" haltingDurationSum="1494.00" meanIntervalHaltingDuration="29.67" maxIntervalHaltingDuration="51.00" intervalHaltingDurationSum="445.00" startedHalts="10.00" meanVehicleNumber="4.75" maxVehicleNumber="5" />
   <interval begin="22200.00" end="22300.00" id="e2_L40_3_0" sampledSeconds="500.00" nVehEntered="0" nVehLeft="0" nVehSeen="5" meanSpeed="0.00" meanTimeLoss="100.00" meanOccupancy="65.05" maxOccupancy="65.05" meanMaxJamLengthInVehicles="5.00" meanMaxJamLengthInMeters="29.00" maxJamLengthInVehicles="5" maxJamLengthInMeters="29.00" jamLengthInVehiclesSum="500" jamLengthInMetersSum="2899.90" meanHaltingDuration="117.20" maxHaltingDuration="120.00" haltingDurationSum="586.00" meanIntervalHaltingDuration="100.00" maxIntervalHaltingDuration="100.00" intervalHaltingDurationSum="500.00" startedHalts="0.00" meanVehicleNumber="5.00" maxVehicleNumber="5" />
   <interval begin="22300.00" end="22400.00" id="e2_L40_3_0" sampledSeconds="500.00" nVehEntered="0" nVehLeft="0" nVehSeen="5" meanSpeed="0.00" meanTimeLoss="100.00" meanOccupancy="65.05" maxOccupancy="65.05" meanMaxJamLengthInVehicles="5.00" meanMaxJamLengthInMeters="29.00" maxJamLengthInVehicles="5" maxJamLengthInMeters="29.00" jamLengthInVehiclesSum="500" jamLengthInMetersSum="2899.90" meanHaltingDuration="217.20" maxHaltingDuration="220.00" haltingDurationSum="1086.00" meanIntervalHaltingDuration="100.00" maxIntervalHaltingDuration="100.00" intervalHaltingDurationSum="500.00" startedHalts="0.00" meanVehicleNumber="5.00" maxVehicleNumber="5" />
   <interval begin="22400.00" end="22500.00" id="e2_L40_3_0" sampledSeconds="500.00" nVehEntered="0" nVehLeft="0" nVehSeen="5" meanSpeed="0.00" meanTimeLoss="100.00" meanOccupancy="65.05" maxOccupancy="65.05" meanMaxJamLengthInVehicles="5.00" meanMaxJamLengthInMeters="29.00" maxJamLengthInVehicles="5" maxJamLengthInMeters="29.00" jamLengthInVehiclesSum="500" jamLengthInMetersSum="2899.90" meanHaltingDuration="317.20" maxHaltingDuration="320.00" haltingDurationSum="1586.00" meanIntervalHaltingDuration="100.00" maxIntervalHaltingDuration="100.00" intervalHaltingDurationSum="500.00" startedHalts="0.00" meanVehicleNumber="5.00" maxVehicleNumber="5" />
   <interval begin="22500.00" end="22600.00" id="e2_L40_3_0" sampledSeconds="500.00" nVehEntered="0" nVehLeft="0" nVehSeen="5" meanSpeed="0.00" meanTimeLoss="100.00" meanOccupancy="65.05" maxOccupancy="65.05" meanMaxJamLengthInVehicles="5.00" meanMaxJamLengthInMeters="29.00" maxJamLengthInVehicles="5" maxJamLengthInMeters="29.00" jamLengthInVehiclesSum="500" jamLengthInMetersSum="2899.90" meanHaltingDuration="417.20" maxHaltingDuration="420.00" haltingDurationSum="2086.00" meanIntervalHaltingDuration="100.00" maxIntervalHaltingDuration="100.00" intervalHaltingDurationSum="500.00" startedHalts="0.00" meanVehicleNumber="5.00" maxVehicleNumber="5" />
   <interval begin="22600.00" end="22700.00" id="e2_L40_3_0" sampledSeconds="500.00" nVehEntered="0" nVehLeft="0" nVehSeen="5" meanSpeed="0.00" meanTimeLoss="100.00" meanOccupancy="65.05" maxOccupancy="65.05" meanMaxJamLengthInVehicles="5.00" meanMaxJamLengthInMeters="29.00" maxJamLengthInVehicles="5" maxJamLengthInMeters="29.00" jamLengthInVehiclesSum="500" jamLengthInMetersSum="2899.90" meanHaltingDuration="517.20" maxHaltingDuration="520.00" haltingDurationSum="2586.00" meanIntervalHaltingDuration="100.00" maxIntervalHaltingDuration="100.00" intervalHaltingDurationSum="500.00" startedHalts="0.00" meanVehicleNumber="5.00" maxVehicleNumber="5" />
   <interval begin="22700.00" end="22800.00" id="e2_L40_3_0" sampledSeconds="465.83" nVehEntered="4" nVehLeft="4" nVehSeen="9" meanSpeed="0.29" meanTimeLoss="50.55" meanOccupancy="61.21" maxOccupancy="65.05" meanMaxJamLengthInVehicles="4.25" meanMaxJamLengthInMeters="24.71" maxJamLengthInVehicles="5" maxJamLengthInMeters="29.90" jamLengthInVehiclesSum="425" jamLengthInMetersSum="2470.79" meanHaltingDuration="251.50" maxHaltingDuration="531.00" haltingDurationSum="3018.00" meanIntervalHaltingDuration="36.00" maxIntervalHaltingDuration="77.00" intervalHaltingDurationSum="432.00" startedHalts="7.00" meanVehicleNumber="4.69" maxVehicleNumber="5" />
   <interval begin="22800.00" end="22900.00" id="e2_L40_3_0" sampledSeconds="482.34" nVehEntered="2" nVehLeft="2" nVehSeen="7" meanSpeed="0.14" meanTimeLoss="68.16" meanOccupancy="63.08" maxOccupancy="65.05" meanMaxJamLengthInVehicles="4.60" meanMaxJamLengthInMeters="26.61" maxJamLengthInVehicles="5" maxJamLengthInMeters="29.00" jamLengthInVehiclesSum="460" jamLengthInMetersSum="2660.70" meanHaltingDuration="83.10" maxHaltingDuration="152.00" haltingDurationSum="831.00" meanIntervalHaltingDuration="46.50" maxIntervalHaltingDuration="82.00" intervalHaltingDurationSum="465.00" startedHalts="5.00" meanVehicleNumber="4.84" maxVehicleNumber="5" />
   <interval begin="22900.00" end="23000.00" id="e2_L40_3_0" sampledSeconds="500.00" nVehEntered="0" nVehLeft="0" nVehSeen="5" meanSpeed="0.00" meanTimeLoss="100.00" meanOccupancy="65.05" maxOccupancy="65.05" meanMaxJamLengthInVehicles="5.00" meanMaxJamLengthInMeters="29.00" maxJamLengthInVehicles="5" maxJamLengthInMeters="29.00" jamLengthInVehiclesSum="500" jamLengthInMetersSum="2899.90" meanHaltingDuration="114.60" maxHaltingDuration="118.00" haltingDurationSum="573.00" meanIntervalHaltingDuration="100.00" maxIntervalHaltingDuration="100.00" intervalHaltingDurationSum="500.00" startedHalts="0.00" meanVehicleNumber="5.00" maxVehicleNumber="5" />
   <interval begin="23000.00" end="23100.00" id="e2_L40_3_0" sampledSeconds="500.00" nVehEntered="0" nVehLeft="0" nVehSeen="5" meanSpeed="0.00" meanTimeLoss="100.00" meanOccupancy="65.05" maxOccupancy="65.05" meanMaxJamLengthInVehicles="5.00" meanMaxJamLengthInMeters="29.00" maxJamLengthInVehicles="5" maxJamLengthInMeters="29.00" jamLengthInVehiclesSum="500" jamLengthInMetersSum="2899.90" meanHaltingDuration="214.60" maxHaltingDuration="218.00" haltingDurationSum="1073.00" meanIntervalHaltingDuration="100.00" maxIntervalHaltingDuration="100.00" intervalHaltingDurationSum="500.00" startedHalts="0.00" meanVehicleNumber="5.00" maxVehicleNumber="5" />
   <interval begin="23100.00" end="23200.00" id="e2_L40_3_0" sampledSeconds="500.00" nVehEntered="0" nVehLeft="0" nVehSeen="5" meanSpeed="0.00" meanTimeLoss="100.00" meanOccupancy="65.05" maxOccupancy="65.05" meanMaxJamLengthInVehicles="5.00" meanMaxJamLengthInMeters="29.00" maxJamLengthInVehicles="5" maxJamLengthInMeters="29.00" jamLengthInVehiclesSum="500" jamLengthInMetersSum="2899.90" meanHaltingDuration="314.60" maxHaltingDuration="318.00" haltingDurationSum="1573.00" meanIntervalHaltingDuration="100.00" maxIntervalHaltingDuration="100.00" intervalHaltingDurationSum="500.00" startedHalts="0.00" meanVehicleNumber="5.00" maxVehicleNumber="5" />
   <interval begin="23200.00" end="23300.00" id="e2_L40_3_0" sampledSeconds="500.00" nVehEntered="0" nVehLeft="0" nVehSeen="5" meanSpeed="0.00" meanTimeLoss="100.00" meanOccupancy="65.05" maxOccupancy="65.05" meanMaxJamLengthInVehicles="5.00" meanMaxJamLengthInMeters="29.00" maxJamLengthInVehicles="5" maxJamLengthInMeters="29.00" jamLengthInVehiclesSum="500" jamLengthInMetersSum="2899.90" meanHaltingDuration="414.60" maxHaltingDuration="418.00" haltingDurationSum="2073.00" meanIntervalHaltingDuration="100.00" maxIntervalHaltingDuration="100.00" intervalHaltingDurationSum="500.00" startedHalts="0.00" meanVehicleNumber="5.00" maxVehicleNumber="5" />
   <interval begin="23300.00" end="23400.00" id="e2_L40_3_0" sampledSeconds="479.47" nVehEntered="2" nVehLeft="2" nVehSeen="7" meanSpeed="0.13" meanTimeLoss="67.80" meanOccupancy="62.93" maxOccupancy="65.05" meanMaxJamLengthInVehicles="4.56" meanMaxJamLengthInMeters="26.44" maxJamLengthInVehicles="5" maxJamLengthInMeters="30.28" jamLengthInVehiclesSum="456" jamLengthInMetersSum="2643.70" meanHaltingDuration="232.22" maxHaltingDuration="443.00" haltingDurationSum="2090.00" meanIntervalHaltingDuration="48.33" maxIntervalHaltingDuration="67.00" intervalHaltingDurationSum="435.00" startedHalts="5.00" meanVehicleNumber="4.81" maxVehicleNumber="5" />
   <interval begin="23400.00" end="23500.00" id="e2_L40_3_0" sampledSeconds="500.00" nVehEntered="0" nVehLeft="0" nVehSeen="5" meanSpeed="0.00" meanTimeLoss="100.00" meanOccupancy="65.05" maxOccupancy="65.05" meanMaxJamLengthInVehicles="5.00" meanMaxJamLengthInMeters="29.00" maxJamLengthInVehicles="5" maxJamLengthInMeters="29.00" jamLengthInVehiclesSum="500" jamLengthInMetersSum="2899.90" meanHaltingDuration="164.00" maxHaltingDuration="167.00" haltingDurationSum="820.00" meanIntervalHaltingDuration="100.00" maxIntervalHaltingDuration="100.00" intervalHaltingDurationSum="500.00" startedHalts="0.00" meanVehicleNumber="5.00" maxVehicleNumber="5" />
   <interval begin="23500.00" end="23600.00" id="e2_L40_3_0" sampledSeconds="500.00" nVehEntered="0" nVehLeft="0" nVehSeen="5" meanSpeed="0.00" meanTimeLoss="100.00" meanOccupancy="65.05" maxOccupancy="65.05" meanMaxJamLengthInVehicles="5.00" meanMaxJamLengthInMeters="29.00" maxJamLengthInVehicles="5" maxJamLengthInMeters="29.00" jamLengthInVehiclesSum="500" jamLengthInMetersSum="2899.90" meanHaltingDuration="264.00" maxHaltingDuration="267.00" haltingDurationSum="1320.00" meanIntervalHaltingDuration="100.00" maxIntervalHaltingDuration="100.00" intervalHaltingDurationSum="500.00" startedHalts="0.00" meanVehicleNumber="5.00" maxVehicleNumber="5" />
   <interval begin="23600.00" end="23700.00" id="e2_L40_3_0" sampledSeconds="500.00" nVehEntered="0" nVehLeft="0" nVehSeen="5" meanSpeed="0.00" meanTimeLoss="100.00" meanOccupancy="65.05" maxOccupancy="65.05" meanMaxJamLengthInVehicles="5.00" meanMaxJamLengthInMeters="29.00" maxJamLengthInVehicles="5" maxJamLengthInMeters="29.00" jamLengthInVehiclesSum="500" jamLengthInMetersSum="2899.90" meanHaltingDuration="364.00" maxHaltingDuration="367.00" haltingDurationSum="1820.00" meanIntervalHaltingDuration="100.00" maxIntervalHaltingDuration="100.00" intervalHaltingDurationSum="500.00" startedHalts="0.00" meanVehicleNumber="5.00" maxVehicleNumber="5" />
   <interval begin="23700.00" end="23800.00" id="e2_L40_3_0" sampledSeconds="500.00" nVehEntered="0" nVehLeft="0" nVehSeen="5" meanSpeed="0.00" meanTimeLoss="100.00" meanOccupancy="65.05" maxOccupancy="65.05" meanMaxJamLengthInVehicles="5.00" meanMaxJamLengthInMeters="29.00" maxJamLengthInVehicles="5" maxJamLengthInMeters="29.00" jamLengthInVehiclesSum="500" jamLengthInMetersSum="2899.90" meanHaltingDuration="464.00" maxHaltingDuration="467.00" haltingDurationSum="2320.00" meanIntervalHaltingDuration="100.00" maxIntervalHaltingDuration="100.00" intervalHaltingDurationSum="500.00" startedHalts="0.00" meanVehicleNumber="5.00" maxVehicleNumber="5" />
   <interval begin="23800.00" end="23900.00" id="e2_L40_3_0" sampledSeconds="500.00" nVehEntered="0" nVehLeft="0" nVehSeen="5" meanSpeed="0.00" meanTimeLoss="100.00" meanOccupancy="65.05" maxOccupancy="65.05" meanMaxJamLengthInVehicles="5.00" meanMaxJamLengthInMeters="29.00" maxJamLengthInVehicles="5" maxJamLengthInMeters="29.00" jamLengthInVehiclesSum="500" jamLengthInMetersSum="2899.90" meanHaltingDuration="564.00" maxHaltingDuration="567.00" haltingDurationSum="2820.00" meanIntervalHaltingDuration="100.00" maxIntervalHaltingDuration="100.00" intervalHaltingDurationSum="500.00" startedHalts="0.00" meanVehicleNumber="5.00" maxVehicleNumber="5" />
   <interval begin="23900.00" end="24000.00" id="e2_L40_3_0" sampledSeconds="500.00" nVehEntered="0" nVehLeft="0" nVehSeen="5" meanSpeed="0.00" meanTimeLoss="100.00" meanOccupancy="65.05" maxOccupancy="65.05" meanMaxJamLengthInVehicles="5.00" meanMaxJamLengthInMeters="29.00" maxJamLengthInVehicles="5" maxJamLengthInMeters="29.00" jamLengthInVehiclesSum="500" jamLengthInMetersSum="2899.90" meanHaltingDuration="664.00" maxHaltingDuration="667.00" haltingDurationSum="3320.00" meanIntervalHaltingDuration="100.00" maxIntervalHaltingDuration="100.00" intervalHaltingDurationSum="500.00" startedHalts="0.00" meanVehicleNumber="5.00" maxVehicleNumber="5" />
   <interval begin="24000.00" end="24100.00" id="e2_L40_3_0" sampledSeconds="500.00" nVehEntered="0" nVehLeft="0" nVehSeen="5" meanSpeed="0.00" meanTimeLoss="100.00" meanOccupancy="65.05" maxOccupancy="65.05" meanMaxJamLengthInVehicles="5.00" meanMaxJamLengthInMeters="29.00" maxJamLengthInVehicles="5" maxJamLengthInMeters="29.00" jamLengthInVehiclesSum="500" jamLengthInMetersSum="2899.90" meanHaltingDuration="764.00" maxHaltingDuration="767.00" haltingDurationSum="3820.00" meanIntervalHaltingDuration="100.00" maxIntervalHaltingDuration="100.00" intervalHaltingDurationSum="500.00" startedHalts="0.00" meanVehicleNumber="5.00" maxVehicleNumber="5" />
   <interval begin="24100.00" end="24200.00" id="e2_L40_3_0" sampledSeconds="500.00" nVehEntered="0" nVehLeft="0" nVehSeen="5" meanSpeed="0.00" meanTimeLoss="100.00" meanOccupancy="65.05" maxOccupancy="65.05" meanMaxJamLengthInVehicles="5.00" meanMaxJamLengthInMeters="29.00" maxJamLengthInVehicles="5" maxJamLengthInMeters="29.00" jamLengthInVehiclesSum="500" jamLengthInMetersSum="2899.90" meanHaltingDuration="864.00" maxHaltingDuration="867.00" haltingDurationSum="4320.00" meanIntervalHaltingDuration="100.00" maxIntervalHaltingDuration="100.00" intervalHaltingDurationSum="500.00" startedHalts="0.00" meanVehicleNumber="5.00" maxVehicleNumber="5" />
   <interval begin="24200.00" end="24300.00" id="e2_L40_3_0" sampledSeconds="500.00" nVehEntered="0" nVehLeft="0" nVehSeen="5" meanSpeed="0.00" meanTimeLoss="100.00" meanOccupancy="65.05" maxOccupancy="65.05" meanMaxJamLengthInVehicles="5.00" meanMaxJamLengthInMeters="29.00" maxJamLengthInVehicles="5" maxJamLengthInMeters="29.00" jamLengthInVehiclesSum="500" jamLengthInMetersSum="2899.90" meanHaltingDuration="964.00" maxHaltingDuration="967.00" haltingDurationSum="4820.00" meanIntervalHaltingDuration="100.00" maxIntervalHaltingDuration="100.00" intervalHaltingDurationSum="500.00" startedHalts="0.00" meanVehicleNumber="5.00" maxVehicleNumber="5" />
   <interval begin="24300.00" end="24400.00" id="e2_L40_3_0" sampledSeconds="483.89" nVehEntered="1" nVehLeft="2" nVehSeen="6" meanSpeed="0.09" meanTimeLoss="80.09" meanOccupancy="63.32" maxOccupancy="65.05" meanMaxJamLengthInVehicles="4.69" meanMaxJamLengthInMeters="27.33" maxJamLengthInVehicles="5" maxJamLengthInMeters="29.00" jamLengthInVehiclesSum="471" jamLengthInMetersSum="2739.03" meanHaltingDuration="529.60" maxHaltingDuration="1024.00" haltingDurationSum="5296.00" meanIntervalHaltingDuration="47.60" maxIntervalHaltingDuration="63.00" intervalHaltingDurationSum="476.00" startedHalts="5.00" meanVehicleNumber="4.84" maxVehicleNumber="5" />
   <interval begin="24400.00" end="24500.00" id="e2_L40_3_0" sampledSeconds="493.11" nVehEntered="1" nVehLeft="0" nVehSeen="5" meanSpeed="0.04" meanTimeLoss="98.31" meanOccupancy="64.61" maxOccupancy="65.05" meanMaxJamLengthInVehicles="4.84" meanMaxJamLengthInMeters="28.16" maxJamLengthInVehicles="5" maxJamLengthInMeters="29.00" jamLengthInVehiclesSum="485" jamLengthInMetersSum="2818.07" meanHaltingDuration="74.50" maxHaltingDuration="100.00" haltingDurationSum="596.00" meanIntervalHaltingDuration="61.25" maxIntervalHaltingDuration="100.00" intervalHaltingDurationSum="490.00" startedHalts="5.00" meanVehicleNumber="4.94" maxVehicleNumber="5" />
   <interval begin="24500.00" end="24600.00" id="e2_L40_3_0" sampledSeconds="500.00" nVehEntered="0" nVehLeft="0" nVehSeen="5" meanSpeed="0.00" meanTimeLoss="100.00" meanOccupancy="65.05" maxOccupancy="65.05" meanMaxJamLengthInVehicles="5.00" meanMaxJamLengthInMeters="29.00" maxJamLengthInVehicles="5" maxJamLengthInMeters="29.00" jamLengthInVehiclesSum="500" jamLengthInMetersSum="2899.89" meanHaltingDuration="197.40" maxHaltingDuration="200.00" haltingDurationSum="987.00" meanIntervalHaltingDuration="100.00" maxIntervalHaltingDuration="100.00" intervalHaltingDurationSum="500.00" startedHalts="0.00" meanVehicleNumber="5.00" maxVehicleNumber="5" />
   <interval begin="24600.00" end="24700.00" id="e2_L40_3_0" sampledSeconds="500.00" nVehEntered="0" nVehLeft="0" nVehSeen="5" meanSpeed="0.00" meanTimeLoss="100.00" meanOccupancy="65.05" maxOccupancy="65.05" meanMaxJamLengthInVehicles="5.00" meanMaxJamLengthInMeters="29.00" maxJamLengthInVehicles="5" maxJamLengthInMeters="29.00" jamLengthInVehiclesSum="500" jamLengthInMetersSum="2899.89" meanHaltingDuration="297.40" maxHaltingDuration="300.00" haltingDurationSum="1487.00" meanIntervalHaltingDuration="100.00" maxIntervalHaltingDuration="100.00" intervalHaltingDurationSum="500.00" startedHalts="0.00" meanVehicleNumber="5.00" maxVehicleNumber="5" />
   <interval begin="24700.00" end="24800.00" id="e2_L40_3_0" sampledSeconds="490.30" nVehEntered="1" nVehLeft="1" nVehSeen="6" meanSpeed="0.08" meanTimeLoss="81.21" meanOccupancy="64.35" maxOccupancy="67.44" meanMaxJamLengthInVehicles="4.71" meanMaxJamLengthInMeters="27.38" maxJamLengthInVehicles="5" maxJamLengthInMeters="29.72" jamLengthInVehiclesSum="473" jamLengthInMetersSum="2745.13" meanHaltingDuration="178.73" maxHaltingDuration="378.00" haltingDurationSum="1966.00" meanIntervalHaltingDuration="43.55" maxIntervalHaltingDuration="82.00" intervalHaltingDurationSum="479.00" startedHalts="6.00" meanVehicleNumber="4.91" maxVehicleNumber="5" />
   <interval begin="24800.00" end="24900.00" id="e2_L40_3_0" sampledSeconds="500.00" nVehEntered="0" nVehLeft="0" nVehSeen="5" meanSpeed="0.00" meanTimeLoss="100.00" meanOccupancy="67.44" maxOccupancy="67.44" meanMaxJamLengthInVehicles="5.00" meanMaxJamLengthInMeters="29.72" maxJamLengthInVehicles="5" maxJamLengthInMeters="29.72" jamLengthInVehiclesSum="500" jamLengthInMetersSum="2971.61" meanHaltingDuration="116.60" maxHaltingDuration="121.00" haltingDurationSum="583.00" meanIntervalHaltingDuration="100.00" maxIntervalHaltingDuration="100.00" intervalHaltingDurationSum="500.00" startedHalts="0.00" meanVehicleNumber="5.00" maxVehicleNumber="5" />
   <interval begin="24900.00" end="25000.00" id="e2_L40_3_0" sampledSeconds="500.00" nVehEntered="0" nVehLeft="0" nVehSeen="5" meanSpeed="0.00" meanTimeLoss="100.00" meanOccupancy="67.44" maxOccupancy="67.44" meanMaxJamLengthInVehicles="5.00" meanMaxJamLengthInMeters="29.72" maxJamLengthInVehicles="5" maxJamLengthInMeters="29.72" jamLengthInVehiclesSum="500" jamLengthInMetersSum="2971.61" meanHaltingDuration="216.60" maxHaltingDuration="221.00" haltingDurationSum="1083.00" meanIntervalHaltingDuration="100.00" maxIntervalHaltingDuration="100.00" intervalHaltingDurationSum="500.00" startedHalts="0.00" meanVehicleNumber="5.00" maxVehicleNumber="5" />
   <interval begin="25000.00" end="25100.00" id="e2_L40_3_0" sampledSeconds="500.00" nVehEntered="0" nVehLeft="0" nVehSeen="5" meanSpeed="0.00" meanTimeLoss="100.00" meanOccupancy="67.44" maxOccupancy="67.44" meanMaxJamLengthInVehicles="5.00" meanMaxJamLengthInMeters="29.72" maxJamLengthInVehicles="5" maxJamLengthInMeters="29.72" jamLengthInVehiclesSum="500" jamLengthInMetersSum="2971.61" meanHaltingDuration="316.60" maxHaltingDuration="321.00" haltingDurationSum="1583.00" meanIntervalHaltingDuration="100.00" maxIntervalHaltingDuration="100.00" intervalHaltingDurationSum="500.00" startedHalts="0.00" meanVehicleNumber="5.00" maxVehicleNumber="5" />
   <interval begin="25100.00" end="25200.00" id="e2_L40_3_0" sampledSeconds="491.02" nVehEntered="1" nVehLeft="1" nVehSeen="6" meanSpeed="0.06" meanTimeLoss="81.41" meanOccupancy="65.71" maxOccupancy="67.44" meanMaxJamLengthInVehicles="4.70" meanMaxJamLengthInMeters="27.66" maxJamLengthInVehicles="5" maxJamLengthInMeters="31.07" jamLengthInVehiclesSum="472" jamLengthInMetersSum="2775.06" meanHaltingDuration="158.69" maxHaltingDuration="377.00" haltingDurationSum="2063.00" meanIntervalHaltingDuration="36.92" maxIntervalHaltingDuration="61.00" intervalHaltingDurationSum="480.00" startedHalts="8.00" meanVehicleNumber="4.92" maxVehicleNumber="5" />
   <interval begin="25200.00" end="25300.00" id="e2_L40_3_0" sampledSeconds="500.00" nVehEntered="0" nVehLeft="0" nVehSeen="5" meanSpeed="0.00" meanTimeLoss="100.00" meanOccupancy="65.77" maxOccupancy="65.77" meanMaxJamLengthInVehicles="5.00" meanMaxJamLengthInMeters="29.22" maxJamLengthInVehicles="5" maxJamLengthInMeters="29.22" jamLengthInVehiclesSum="500" jamLengthInMetersSum="2921.51" meanHaltingDuration="136.60" maxHaltingDuration="140.00" haltingDurationSum="683.00" meanIntervalHaltingDuration="100.00" maxIntervalHaltingDuration="100.00" intervalHaltingDurationSum="500.00" startedHalts="0.00" meanVehicleNumber="5.00" maxVehicleNumber="5" />
   <interval begin="25300.00" end="25400.00" id="e2_L40_3_0" sampledSeconds="500.00" nVehEntered="0" nVehLeft="0" nVehSeen="5" meanSpeed="0.00" meanTimeLoss="100.00" meanOccupancy="65.77" maxOccupancy="65.77" meanMaxJamLengthInVehicles="5.00" meanMaxJamLengthInMeters="29.22" maxJamLengthInVehicles="5" maxJamLengthInMeters="29.22" jamLengthInVehiclesSum="500" jamLengthInMetersSum="2921.51" meanHaltingDuration="236.60" maxHaltingDuration="240.00" haltingDurationSum="1183.00" meanIntervalHaltingDuration="100.00" maxIntervalHaltingDuration="100.00" intervalHaltingDurationSum="500.00" startedHalts="0.00" meanVehicleNumber="5.00" maxVehicleNumber="5" />
   <interval begin="25400.00" end="25500.00" id="e2_L40_3_0" sampledSeconds="500.00" nVehEntered="0" nVehLeft="0" nVehSeen="5" meanSpeed="0.00" meanTimeLoss="100.00" meanOccupancy="65.77" maxOccupancy="65.77" meanMaxJamLengthInVehicles="5.00" meanMaxJamLengthInMeters="29.22" maxJamLengthInVehicles="5" maxJamLengthInMeters="29.22" jamLengthInVehiclesSum="500" jamLengthInMetersSum="2921.51" meanHaltingDuration="336.60" maxHaltingDuration="340.00" haltingDurationSum="1683.00" meanIntervalHaltingDuration="100.00" maxIntervalHaltingDuration="100.00" intervalHaltingDurationSum="500.00" startedHalts="0.00" meanVehicleNumber="5.00" maxVehicleNumber="5" />
   <interval begin="25500.00" end="25600.00" id="e2_L40_3_0" sampledSeconds="500.00" nVehEntered="0" nVehLeft="0" nVehSeen="5" meanSpeed="0.00" meanTimeLoss="100.00" meanOccupancy="65.77" maxOccupancy="65.77" meanMaxJamLengthInVehicles="5.00" meanMaxJamLengthInMeters="29.22" maxJamLengthInVehicles="5" maxJamLengthInMeters="29.22" jamLengthInVehiclesSum="500" jamLengthInMetersSum="2921.51" meanHaltingDuration="436.60" maxHaltingDuration="440.00" haltingDurationSum="2183.00" meanIntervalHaltingDuration="100.00" maxIntervalHaltingDuration="100.00" intervalHaltingDurationSum="500.00" startedHalts="0.00" meanVehicleNumber="5.00" maxVehicleNumber="5" />
   <interval begin="25600.00" end="25700.00" id="e2_L40_3_0" sampledSeconds="500.00" nVehEntered="0" nVehLeft="0" nVehSeen="5" meanSpeed="0.00" meanTimeLoss="100.00" meanOccupancy="65.77" maxOccupancy="65.77" meanMaxJamLengthInVehicles="5.00" meanMaxJamLengthInMeters="29.22" maxJamLengthInVehicles="5" maxJamLengthInMeters="29.22" jamLengthInVehiclesSum="500" jamLengthInMetersSum="2921.51" meanHaltingDuration="536.60" maxHaltingDuration="540.00" haltingDurationSum="2683.00" meanIntervalHaltingDuration="100.00" maxIntervalHaltingDuration="100.00" intervalHaltingDurationSum="500.00" startedHalts="0.00" meanVehicleNumber="5.00" maxVehicleNumber="5" />
   <interval begin="25700.00" end="25800.00" id="e2_L40_3_0" sampledSeconds="490.94" nVehEntered="1" nVehLeft="1" nVehSeen="6" meanSpeed="0.07" meanTimeLoss="81.38" meanOccupancy="64.68" maxOccupancy="65.77" meanMaxJamLengthInVehicles="4.75" meanMaxJamLengthInMeters="27.75" maxJamLengthInVehicles="5" maxJamLengthInMeters="29.22" jamLengthInVehiclesSum="477" jamLengthInMetersSum="2781.11" meanHaltingDuration="316.50" maxHaltingDuration="586.00" haltingDurationSum="3165.00" meanIntervalHaltingDuration="48.20" maxIntervalHaltingDuration="52.00" intervalHaltingDurationSum="482.00" startedHalts="5.00" meanVehicleNumber="4.91" maxVehicleNumber="5" />
   <interval begin="25800.00" end="25900.00" id="e2_L40_3_0" sampledSeconds="500.00" nVehEntered="0" nVehLeft="0" nVehSeen="5" meanSpeed="0.00" meanTimeLoss="100.00" meanOccupancy="65.52" maxOccupancy="65.52" meanMaxJamLengthInVehicles="5.00" meanMaxJamLengthInMeters="29.14" maxJamLengthInVehicles="5" maxJamLengthInMeters="29.14" jamLengthInVehiclesSum="500" jamLengthInMetersSum="2913.94" meanHaltingDuration="147.80" maxHaltingDuration="151.00" haltingDurationSum="739.00" meanIntervalHaltingDuration="100.00" maxIntervalHaltingDuration="100.00" intervalHaltingDurationSum="500.00" startedHalts="0.00" meanVehicleNumber="5.00" maxVehicleNumber="5" />