<?xml version="1.0" encoding="UTF-8"?>

<!-- generated on Sun Feb 17 15:57:00 2019 by 
<configuration xmlns:xsi="http://www.w3.org/2001/XMLSchema-instance" xsi:noNamespaceSchemaLocation="http://sumo.dlr.de/xsd/Configuration.xsd">

    <input>
        <net-file value="/home/sda/Documents/sumo-sathorn-ray/models/sathorn-morning/sathorn_w_fixed_20160404.net.xml"/>
        <route-files value="/home/sda/Documents/sumo-sathorn-ray/models/sathorn-morning/Great-route/sathorn_w_20160422edit2.rou.xml"/>
        <additional-files value="/home/sda/Documents/sumo-sathorn-ray/models/sathorn-morning/sathon_wide_tls_20160418_edited.add.xml,/home/sda/Documents/sumo-sathorn-ray/detectors/sathorn_w_detectors.add.xml"/>
    </input>

    <time>
        <begin value="21600"/>
        <end value="32400"/>
        <step-length value="1"/>
    </time>

    <processing>
        <no-internal-links value="true"/>
        <ignore-junction-blocker value="-1"/>
        <time-to-teleport value="-1"/>
        <eager-insert value="true"/>
        <time-to-impatience value="300"/>
    </processing>

    <report>
        <no-warnings value="true"/>
    </report>

    <random_number>
        <random value="false"/>
        <seed value="20"/>
    </random_number>

    <gui_only>
        <gui-settings-file value="/home/sda/Documents/sumo-sathorn-ray/gui-settings/gui-settings-file-surasak.xml"/>
        <quit-on-end value="true"/>
        <start value="true"/>
        <tracker-interval value="1"/>
    </gui_only>

</configuration>
-->

<detector xmlns:xsi="http://www.w3.org/2001/XMLSchema-instance" xsi:noNamespaceSchemaLocation="http://sumo.dlr.de/xsd/det_e2_file.xsd">
   <interval begin="21600.00" end="21700.00" id="e2_L193#1_3_2" sampledSeconds="0.00" nVehEntered="0" nVehLeft="0" nVehSeen="0" meanSpeed="-1.00" meanTimeLoss="-1.00" meanOccupancy="0.00" maxOccupancy="0.00" meanMaxJamLengthInVehicles="0.00" meanMaxJamLengthInMeters="0.00" maxJamLengthInVehicles="0" maxJamLengthInMeters="0.00" jamLengthInVehiclesSum="0" jamLengthInMetersSum="0.00" meanHaltingDuration="0.00" maxHaltingDuration="0.00" haltingDurationSum="0.00" meanIntervalHaltingDuration="0.00" maxIntervalHaltingDuration="0.00" intervalHaltingDurationSum="0.00" startedHalts="0.00" meanVehicleNumber="0.00" maxVehicleNumber="0" />
   <interval begin="21700.00" end="21800.00" id="e2_L193#1_3_2" sampledSeconds="0.00" nVehEntered="0" nVehLeft="0" nVehSeen="0" meanSpeed="-1.00" meanTimeLoss="-1.00" meanOccupancy="0.00" maxOccupancy="0.00" meanMaxJamLengthInVehicles="0.00" meanMaxJamLengthInMeters="0.00" maxJamLengthInVehicles="0" maxJamLengthInMeters="0.00" jamLengthInVehiclesSum="0" jamLengthInMetersSum="0.00" meanHaltingDuration="0.00" maxHaltingDuration="0.00" haltingDurationSum="0.00" meanIntervalHaltingDuration="0.00" maxIntervalHaltingDuration="0.00" intervalHaltingDurationSum="0.00" startedHalts="0.00" meanVehicleNumber="0.00" maxVehicleNumber="0" />
   <interval begin="21800.00" end="21900.00" id="e2_L193#1_3_2" sampledSeconds="0.00" nVehEntered="0" nVehLeft="0" nVehSeen="0" meanSpeed="-1.00" meanTimeLoss="-1.00" meanOccupancy="0.00" maxOccupancy="0.00" meanMaxJamLengthInVehicles="0.00" meanMaxJamLengthInMeters="0.00" maxJamLengthInVehicles="0" maxJamLengthInMeters="0.00" jamLengthInVehiclesSum="0" jamLengthInMetersSum="0.00" meanHaltingDuration="0.00" maxHaltingDuration="0.00" haltingDurationSum="0.00" meanIntervalHaltingDuration="0.00" maxIntervalHaltingDuration="0.00" intervalHaltingDurationSum="0.00" startedHalts="0.00" meanVehicleNumber="0.00" maxVehicleNumber="0" />
   <interval begin="21900.00" end="22000.00" id="e2_L193#1_3_2" sampledSeconds="0.00" nVehEntered="0" nVehLeft="0" nVehSeen="0" meanSpeed="-1.00" meanTimeLoss="-1.00" meanOccupancy="0.00" maxOccupancy="0.00" meanMaxJamLengthInVehicles="0.00" meanMaxJamLengthInMeters="0.00" maxJamLengthInVehicles="0" maxJamLengthInMeters="0.00" jamLengthInVehiclesSum="0" jamLengthInMetersSum="0.00" meanHaltingDuration="0.00" maxHaltingDuration="0.00" haltingDurationSum="0.00" meanIntervalHaltingDuration="0.00" maxIntervalHaltingDuration="0.00" intervalHaltingDurationSum="0.00" startedHalts="0.00" meanVehicleNumber="0.00" maxVehicleNumber="0" />
   <interval begin="22000.00" end="22100.00" id="e2_L193#1_3_2" sampledSeconds="0.00" nVehEntered="0" nVehLeft="0" nVehSeen="0" meanSpeed="-1.00" meanTimeLoss="-1.00" meanOccupancy="0.00" maxOccupancy="0.00" meanMaxJamLengthInVehicles="0.00" meanMaxJamLengthInMeters="0.00" maxJamLengthInVehicles="0" maxJamLengthInMeters="0.00" jamLengthInVehiclesSum="0" jamLengthInMetersSum="0.00" meanHaltingDuration="0.00" maxHaltingDuration="0.00" haltingDurationSum="0.00" meanIntervalHaltingDuration="0.00" maxIntervalHaltingDuration="0.00" intervalHaltingDurationSum="0.00" startedHalts="0.00" meanVehicleNumber="0.00" maxVehicleNumber="0" />
   <interval begin="22100.00" end="22200.00" id="e2_L193#1_3_2" sampledSeconds="0.00" nVehEntered="0" nVehLeft="0" nVehSeen="0" meanSpeed="-1.00" meanTimeLoss="-1.00" meanOccupancy="0.00" maxOccupancy="0.00" meanMaxJamLengthInVehicles="0.00" meanMaxJamLengthInMeters="0.00" maxJamLengthInVehicles="0" maxJamLengthInMeters="0.00" jamLengthInVehiclesSum="0" jamLengthInMetersSum="0.00" meanHaltingDuration="0.00" maxHaltingDuration="0.00" haltingDurationSum="0.00" meanIntervalHaltingDuration="0.00" maxIntervalHaltingDuration="0.00" intervalHaltingDurationSum="0.00" startedHalts="0.00" meanVehicleNumber="0.00" maxVehicleNumber="0" />
   <interval begin="22200.00" end="22300.00" id="e2_L193#1_3_2" sampledSeconds="0.00" nVehEntered="0" nVehLeft="0" nVehSeen="0" meanSpeed="-1.00" meanTimeLoss="-1.00" meanOccupancy="0.00" maxOccupancy="0.00" meanMaxJamLengthInVehicles="0.00" meanMaxJamLengthInMeters="0.00" maxJamLengthInVehicles="0" maxJamLengthInMeters="0.00" jamLengthInVehiclesSum="0" jamLengthInMetersSum="0.00" meanHaltingDuration="0.00" maxHaltingDuration="0.00" haltingDurationSum="0.00" meanIntervalHaltingDuration="0.00" maxIntervalHaltingDuration="0.00" intervalHaltingDurationSum="0.00" startedHalts="0.00" meanVehicleNumber="0.00" maxVehicleNumber="0" />
   <interval begin="22300.00" end="22400.00" id="e2_L193#1_3_2" sampledSeconds="0.00" nVehEntered="0" nVehLeft="0" nVehSeen="0" meanSpeed="-1.00" meanTimeLoss="-1.00" meanOccupancy="0.00" maxOccupancy="0.00" meanMaxJamLengthInVehicles="0.00" meanMaxJamLengthInMeters="0.00" maxJamLengthInVehicles="0" maxJamLengthInMeters="0.00" jamLengthInVehiclesSum="0" jamLengthInMetersSum="0.00" meanHaltingDuration="0.00" maxHaltingDuration="0.00" haltingDurationSum="0.00" meanIntervalHaltingDuration="0.00" maxIntervalHaltingDuration="0.00" intervalHaltingDurationSum="0.00" startedHalts="0.00" meanVehicleNumber="0.00" maxVehicleNumber="0" />
   <interval begin="22400.00" end="22500.00" id="e2_L193#1_3_2" sampledSeconds="0.00" nVehEntered="0" nVehLeft="0" nVehSeen="0" meanSpeed="-1.00" meanTimeLoss="-1.00" meanOccupancy="0.00" maxOccupancy="0.00" meanMaxJamLengthInVehicles="0.00" meanMaxJamLengthInMeters="0.00" maxJamLengthInVehicles="0" maxJamLengthInMeters="0.00" jamLengthInVehiclesSum="0" jamLengthInMetersSum="0.00" meanHaltingDuration="0.00" maxHaltingDuration="0.00" haltingDurationSum="0.00" meanIntervalHaltingDuration="0.00" maxIntervalHaltingDuration="0.00" intervalHaltingDurationSum="0.00" startedHalts="0.00" meanVehicleNumber="0.00" maxVehicleNumber="0" />
   <interval begin="22500.00" end="22600.00" id="e2_L193#1_3_2" sampledSeconds="0.00" nVehEntered="0" nVehLeft="0" nVehSeen="0" meanSpeed="-1.00" meanTimeLoss="-1.00" meanOccupancy="0.00" maxOccupancy="0.00" meanMaxJamLengthInVehicles="0.00" meanMaxJamLengthInMeters="0.00" maxJamLengthInVehicles="0" maxJamLengthInMeters="0.00" jamLengthInVehiclesSum="0" jamLengthInMetersSum="0.00" meanHaltingDuration="0.00" maxHaltingDuration="0.00" haltingDurationSum="0.00" meanIntervalHaltingDuration="0.00" maxIntervalHaltingDuration="0.00" intervalHaltingDurationSum="0.00" startedHalts="0.00" meanVehicleNumber="0.00" maxVehicleNumber="0" />
   <interval begin="22600.00" end="22700.00" id="e2_L193#1_3_2" sampledSeconds="0.00" nVehEntered="0" nVehLeft="0" nVehSeen="0" meanSpeed="-1.00" meanTimeLoss="-1.00" meanOccupancy="0.00" maxOccupancy="0.00" meanMaxJamLengthInVehicles="0.00" meanMaxJamLengthInMeters="0.00" maxJamLengthInVehicles="0" maxJamLengthInMeters="0.00" jamLengthInVehiclesSum="0" jamLengthInMetersSum="0.00" meanHaltingDuration="0.00" maxHaltingDuration="0.00" haltingDurationSum="0.00" meanIntervalHaltingDuration="0.00" maxIntervalHaltingDuration="0.00" intervalHaltingDurationSum="0.00" startedHalts="0.00" meanVehicleNumber="0.00" maxVehicleNumber="0" />
   <interval begin="22700.00" end="22800.00" id="e2_L193#1_3_2" sampledSeconds="0.00" nVehEntered="0" nVehLeft="0" nVehSeen="0" meanSpeed="-1.00" meanTimeLoss="-1.00" meanOccupancy="0.00" maxOccupancy="0.00" meanMaxJamLengthInVehicles="0.00" meanMaxJamLengthInMeters="0.00" maxJamLengthInVehicles="0" maxJamLengthInMeters="0.00" jamLengthInVehiclesSum="0" jamLengthInMetersSum="0.00" meanHaltingDuration="0.00" maxHaltingDuration="0.00" haltingDurationSum="0.00" meanIntervalHaltingDuration="0.00" maxIntervalHaltingDuration="0.00" intervalHaltingDurationSum="0.00" startedHalts="0.00" meanVehicleNumber="0.00" maxVehicleNumber="0" />
   <interval begin="22800.00" end="22900.00" id="e2_L193#1_3_2" sampledSeconds="39.29" nVehEntered="2" nVehLeft="1" nVehSeen="2" meanSpeed="12.14" meanTimeLoss="0.57" meanOccupancy="0.78" maxOccupancy="3.92" meanMaxJamLengthInVehicles="0.00" meanMaxJamLengthInMeters="0.00" maxJamLengthInVehicles="0" maxJamLengthInMeters="0.00" jamLengthInVehiclesSum="0" jamLengthInMetersSum="0.00" meanHaltingDuration="0.00" maxHaltingDuration="0.00" haltingDurationSum="0.00" meanIntervalHaltingDuration="0.00" maxIntervalHaltingDuration="0.00" intervalHaltingDurationSum="0.00" startedHalts="0.00" meanVehicleNumber="0.41" maxVehicleNumber="2" />
   <interval begin="22900.00" end="23000.00" id="e2_L193#1_3_2" sampledSeconds="39.78" nVehEntered="2" nVehLeft="3" nVehSeen="3" meanSpeed="12.19" meanTimeLoss="0.33" meanOccupancy="0.77" maxOccupancy="3.92" meanMaxJamLengthInVehicles="0.00" meanMaxJamLengthInMeters="0.00" maxJamLengthInVehicles="0" maxJamLengthInMeters="0.00" jamLengthInVehiclesSum="0" jamLengthInMetersSum="0.00" meanHaltingDuration="0.00" maxHaltingDuration="0.00" haltingDurationSum="0.00" meanIntervalHaltingDuration="0.00" maxIntervalHaltingDuration="0.00" intervalHaltingDurationSum="0.00" startedHalts="0.00" meanVehicleNumber="0.43" maxVehicleNumber="2" />
   <interval begin="23000.00" end="23100.00" id="e2_L193#1_3_2" sampledSeconds="1258.29" nVehEntered="39" nVehLeft="7" nVehSeen="39" meanSpeed="4.53" meanTimeLoss="20.50" meanOccupancy="24.67" maxOccupancy="62.67" meanMaxJamLengthInVehicles="6.37" meanMaxJamLengthInMeters="43.48" maxJamLengthInVehicles="29" maxJamLengthInMeters="200.71" jamLengthInVehiclesSum="637" jamLengthInMetersSum="4348.04" meanHaltingDuration="15.48" maxHaltingDuration="48.00" haltingDurationSum="681.00" meanIntervalHaltingDuration="15.48" maxIntervalHaltingDuration="48.00" intervalHaltingDurationSum="681.00" startedHalts="44.00" meanVehicleNumber="12.82" maxVehicleNumber="32" />
   <interval begin="23100.00" end="23200.00" id="e2_L193#1_3_2" sampledSeconds="3361.87" nVehEntered="2" nVehLeft="0" nVehSeen="34" meanSpeed="0.01" meanTimeLoss="98.82" meanOccupancy="65.54" maxOccupancy="66.10" meanMaxJamLengthInVehicles="33.51" meanMaxJamLengthInMeters="231.23" maxJamLengthInVehicles="34" maxJamLengthInMeters="234.18" jamLengthInVehiclesSum="3351" jamLengthInMetersSum="23123.31" meanHaltingDuration="118.29" maxHaltingDuration="148.00" haltingDurationSum="4022.00" meanIntervalHaltingDuration="98.68" maxIntervalHaltingDuration="100.00" intervalHaltingDurationSum="3355.00" startedHalts="4.00" meanVehicleNumber="33.62" maxVehicleNumber="34" />
   <interval begin="23200.00" end="23300.00" id="e2_L193#1_3_2" sampledSeconds="3400.00" nVehEntered="0" nVehLeft="0" nVehSeen="34" meanSpeed="0.00" meanTimeLoss="100.00" meanOccupancy="66.10" maxOccupancy="66.10" meanMaxJamLengthInVehicles="34.00" meanMaxJamLengthInMeters="234.18" maxJamLengthInVehicles="34" maxJamLengthInMeters="234.18" jamLengthInVehiclesSum="3400" jamLengthInMetersSum="23417.75" meanHaltingDuration="218.29" maxHaltingDuration="248.00" haltingDurationSum="7422.00" meanIntervalHaltingDuration="100.00" maxIntervalHaltingDuration="100.00" intervalHaltingDurationSum="3400.00" startedHalts="0.00" meanVehicleNumber="34.00" maxVehicleNumber="34" />
   <interval begin="23300.00" end="23400.00" id="e2_L193#1_3_2" sampledSeconds="3400.00" nVehEntered="0" nVehLeft="0" nVehSeen="34" meanSpeed="0.00" meanTimeLoss="100.00" meanOccupancy="66.10" maxOccupancy="66.10" meanMaxJamLengthInVehicles="34.00" meanMaxJamLengthInMeters="234.18" maxJamLengthInVehicles="34" maxJamLengthInMeters="234.18" jamLengthInVehiclesSum="3400" jamLengthInMetersSum="23417.75" meanHaltingDuration="318.29" maxHaltingDuration="348.00" haltingDurationSum="10822.00" meanIntervalHaltingDuration="100.00" maxIntervalHaltingDuration="100.00" intervalHaltingDurationSum="3400.00" startedHalts="0.00" meanVehicleNumber="34.00" maxVehicleNumber="34" />
   <interval begin="23400.00" end="23500.00" id="e2_L193#1_3_2" sampledSeconds="3400.00" nVehEntered="0" nVehLeft="0" nVehSeen="34" meanSpeed="0.00" meanTimeLoss="100.00" meanOccupancy="66.10" maxOccupancy="66.10" meanMaxJamLengthInVehicles="34.00" meanMaxJamLengthInMeters="234.18" maxJamLengthInVehicles="34" maxJamLengthInMeters="234.18" jamLengthInVehiclesSum="3400" jamLengthInMetersSum="23417.75" meanHaltingDuration="418.29" maxHaltingDuration="448.00" haltingDurationSum="14222.00" meanIntervalHaltingDuration="100.00" maxIntervalHaltingDuration="100.00" intervalHaltingDurationSum="3400.00" startedHalts="0.00" meanVehicleNumber="34.00" maxVehicleNumber="34" />
   <interval begin="23500.00" end="23600.00" id="e2_L193#1_3_2" sampledSeconds="3264.00" nVehEntered="0" nVehLeft="2" nVehSeen="34" meanSpeed="0.00" meanTimeLoss="96.00" meanOccupancy="63.44" maxOccupancy="66.10" meanMaxJamLengthInVehicles="32.64" meanMaxJamLengthInMeters="224.67" maxJamLengthInVehicles="34" maxJamLengthInMeters="234.18" jamLengthInVehiclesSum="3264" jamLengthInMetersSum="22466.98" meanHaltingDuration="516.50" maxHaltingDuration="545.00" haltingDurationSum="16528.00" meanIntervalHaltingDuration="100.00" maxIntervalHaltingDuration="100.00" intervalHaltingDurationSum="3200.00" startedHalts="0.00" meanVehicleNumber="32.64" maxVehicleNumber="34" />
   <interval begin="23600.00" end="23700.00" id="e2_L193#1_3_2" sampledSeconds="3200.00" nVehEntered="0" nVehLeft="0" nVehSeen="32" meanSpeed="0.00" meanTimeLoss="100.00" meanOccupancy="62.19" maxOccupancy="62.19" meanMaxJamLengthInVehicles="32.00" meanMaxJamLengthInMeters="220.20" maxJamLengthInVehicles="32" maxJamLengthInMeters="220.20" jamLengthInVehiclesSum="3200" jamLengthInMetersSum="22019.55" meanHaltingDuration="616.50" maxHaltingDuration="645.00" haltingDurationSum="19728.00" meanIntervalHaltingDuration="100.00" maxIntervalHaltingDuration="100.00" intervalHaltingDurationSum="3200.00" startedHalts="0.00" meanVehicleNumber="32.00" maxVehicleNumber="32" />
   <interval begin="23700.00" end="23800.00" id="e2_L193#1_3_2" sampledSeconds="3200.00" nVehEntered="0" nVehLeft="0" nVehSeen="32" meanSpeed="0.00" meanTimeLoss="100.00" meanOccupancy="62.19" maxOccupancy="62.19" meanMaxJamLengthInVehicles="32.00" meanMaxJamLengthInMeters="220.20" maxJamLengthInVehicles="32" maxJamLengthInMeters="220.20" jamLengthInVehiclesSum="3200" jamLengthInMetersSum="22019.55" meanHaltingDuration="716.50" maxHaltingDuration="745.00" haltingDurationSum="22928.00" meanIntervalHaltingDuration="100.00" maxIntervalHaltingDuration="100.00" intervalHaltingDurationSum="3200.00" startedHalts="0.00" meanVehicleNumber="32.00" maxVehicleNumber="32" />
   <interval begin="23800.00" end="23900.00" id="e2_L193#1_3_2" sampledSeconds="3200.00" nVehEntered="0" nVehLeft="0" nVehSeen="32" meanSpeed="0.00" meanTimeLoss="100.00" meanOccupancy="62.19" maxOccupancy="62.19" meanMaxJamLengthInVehicles="32.00" meanMaxJamLengthInMeters="220.20" maxJamLengthInVehicles="32" maxJamLengthInMeters="220.20" jamLengthInVehiclesSum="3200" jamLengthInMetersSum="22019.55" meanHaltingDuration="816.50" maxHaltingDuration="845.00" haltingDurationSum="26128.00" meanIntervalHaltingDuration="100.00" maxIntervalHaltingDuration="100.00" intervalHaltingDurationSum="3200.00" startedHalts="0.00" meanVehicleNumber="32.00" maxVehicleNumber="32" />
   <interval begin="23900.00" end="24000.00" id="e2_L193#1_3_2" sampledSeconds="3200.00" nVehEntered="0" nVehLeft="0" nVehSeen="32" meanSpeed="0.00" meanTimeLoss="100.00" meanOccupancy="62.19" maxOccupancy="62.19" meanMaxJamLengthInVehicles="32.00" meanMaxJamLengthInMeters="220.20" maxJamLengthInVehicles="32" maxJamLengthInMeters="220.20" jamLengthInVehiclesSum="3200" jamLengthInMetersSum="22019.55" meanHaltingDuration="916.50" maxHaltingDuration="945.00" haltingDurationSum="29328.00" meanIntervalHaltingDuration="100.00" maxIntervalHaltingDuration="100.00" intervalHaltingDurationSum="3200.00" startedHalts="0.00" meanVehicleNumber="32.00" maxVehicleNumber="32" />
   <interval begin="24000.00" end="24100.00" id="e2_L193#1_3_2" sampledSeconds="3200.00" nVehEntered="0" nVehLeft="0" nVehSeen="32" meanSpeed="0.00" meanTimeLoss="100.00" meanOccupancy="62.19" maxOccupancy="62.19" meanMaxJamLengthInVehicles="32.00" meanMaxJamLengthInMeters="220.20" maxJamLengthInVehicles="32" maxJamLengthInMeters="220.20" jamLengthInVehiclesSum="3200" jamLengthInMetersSum="22019.55" meanHaltingDuration="1016.50" maxHaltingDuration="1045.00" haltingDurationSum="32528.00" meanIntervalHaltingDuration="100.00" maxIntervalHaltingDuration="100.00" intervalHaltingDurationSum="3200.00" startedHalts="0.00" meanVehicleNumber="32.00" maxVehicleNumber="32" />
   <interval begin="24100.00" end="24200.00" id="e2_L193#1_3_2" sampledSeconds="3200.00" nVehEntered="0" nVehLeft="0" nVehSeen="32" meanSpeed="0.00" meanTimeLoss="100.00" meanOccupancy="62.19" maxOccupancy="62.19" meanMaxJamLengthInVehicles="32.00" meanMaxJamLengthInMeters="220.20" maxJamLengthInVehicles="32" maxJamLengthInMeters="220.20" jamLengthInVehiclesSum="3200" jamLengthInMetersSum="22019.55" meanHaltingDuration="1116.50" maxHaltingDuration="1145.00" haltingDurationSum="35728.00" meanIntervalHaltingDuration="100.00" maxIntervalHaltingDuration="100.00" intervalHaltingDurationSum="3200.00" startedHalts="0.00" meanVehicleNumber="32.00" maxVehicleNumber="32" />
   <interval begin="24200.00" end="24300.00" id="e2_L193#1_3_2" sampledSeconds="3200.00" nVehEntered="0" nVehLeft="0" nVehSeen="32" meanSpeed="0.00" meanTimeLoss="100.00" meanOccupancy="62.19" maxOccupancy="62.19" meanMaxJamLengthInVehicles="32.00" meanMaxJamLengthInMeters="220.20" maxJamLengthInVehicles="32" maxJamLengthInMeters="220.20" jamLengthInVehiclesSum="3200" jamLengthInMetersSum="22019.55" meanHaltingDuration="1216.50" maxHaltingDuration="1245.00" haltingDurationSum="38928.00" meanIntervalHaltingDuration="100.00" maxIntervalHaltingDuration="100.00" intervalHaltingDurationSum="3200.00" startedHalts="0.00" meanVehicleNumber="32.00" maxVehicleNumber="32" />
   <interval begin="24300.00" end="24400.00" id="e2_L193#1_3_2" sampledSeconds="3200.00" nVehEntered="0" nVehLeft="0" nVehSeen="32" meanSpeed="0.00" meanTimeLoss="100.00" meanOccupancy="62.19" maxOccupancy="62.19" meanMaxJamLengthInVehicles="32.00" meanMaxJamLengthInMeters="220.20" maxJamLengthInVehicles="32" maxJamLengthInMeters="220.20" jamLengthInVehiclesSum="3200" jamLengthInMetersSum="22019.55" meanHaltingDuration="1316.50" maxHaltingDuration="1345.00" haltingDurationSum="42128.00" meanIntervalHaltingDuration="100.00" maxIntervalHaltingDuration="100.00" intervalHaltingDurationSum="3200.00" startedHalts="0.00" meanVehicleNumber="32.00" maxVehicleNumber="32" />
   <interval begin="24400.00" end="24500.00" id="e2_L193#1_3_2" sampledSeconds="3200.00" nVehEntered="0" nVehLeft="0" nVehSeen="32" meanSpeed="0.00" meanTimeLoss="100.00" meanOccupancy="62.19" maxOccupancy="62.19" meanMaxJamLengthInVehicles="32.00" meanMaxJamLengthInMeters="220.20" maxJamLengthInVehicles="32" maxJamLengthInMeters="220.20" jamLengthInVehiclesSum="3200" jamLengthInMetersSum="22019.55" meanHaltingDuration="1416.50" maxHaltingDuration="1445.00" haltingDurationSum="45328.00" meanIntervalHaltingDuration="100.00" maxIntervalHaltingDuration="100.00" intervalHaltingDurationSum="3200.00" startedHalts="0.00" meanVehicleNumber="32.00" maxVehicleNumber="32" />
   <interval begin="24500.00" end="24600.00" id="e2_L193#1_3_2" sampledSeconds="3200.00" nVehEntered="0" nVehLeft="0" nVehSeen="32" meanSpeed="0.00" meanTimeLoss="100.00" meanOccupancy="62.19" maxOccupancy="62.19" meanMaxJamLengthInVehicles="32.00" meanMaxJamLengthInMeters="220.20" maxJamLengthInVehicles="32" maxJamLengthInMeters="220.20" jamLengthInVehiclesSum="3200" jamLengthInMetersSum="22019.55" meanHaltingDuration="1516.50" maxHaltingDuration="1545.00" haltingDurationSum="48528.00" meanIntervalHaltingDuration="100.00" maxIntervalHaltingDuration="100.00" intervalHaltingDurationSum="3200.00" startedHalts="0.00" meanVehicleNumber="32.00" maxVehicleNumber="32" />
   <interval begin="24600.00" end="24700.00" id="e2_L193#1_3_2" sampledSeconds="3200.00" nVehEntered="0" nVehLeft="0" nVehSeen="32" meanSpeed="0.00" meanTimeLoss="100.00" meanOccupancy="62.19" maxOccupancy="62.19" meanMaxJamLengthInVehicles="32.00" meanMaxJamLengthInMeters="220.20" maxJamLengthInVehicles="32" maxJamLengthInMeters="220.20" jamLengthInVehiclesSum="3200" jamLengthInMetersSum="22019.55" meanHaltingDuration="1616.50" maxHaltingDuration="1645.00" haltingDurationSum="51728.00" meanIntervalHaltingDuration="100.00" maxIntervalHaltingDuration="100.00" intervalHaltingDurationSum="3200.00" startedHalts="0.00" meanVehicleNumber="32.00" maxVehicleNumber="32" />
   <interval begin="24700.00" end="24800.00" id="e2_L193#1_3_2" sampledSeconds="3200.00" nVehEntered="0" nVehLeft="0" nVehSeen="32" meanSpeed="0.00" meanTimeLoss="100.00" meanOccupancy="62.19" maxOccupancy="62.19" meanMaxJamLengthInVehicles="32.00" meanMaxJamLengthInMeters="220.20" maxJamLengthInVehicles="32" maxJamLengthInMeters="220.20" jamLengthInVehiclesSum="3200" jamLengthInMetersSum="22019.55" meanHaltingDuration="1716.50" maxHaltingDuration="1745.00" haltingDurationSum="54928.00" meanIntervalHaltingDuration="100.00" maxIntervalHaltingDuration="100.00" intervalHaltingDurationSum="3200.00" startedHalts="0.00" meanVehicleNumber="32.00" maxVehicleNumber="32" />
   <interval begin="24800.00" end="24900.00" id="e2_L193#1_3_2" sampledSeconds="3200.00" nVehEntered="0" nVehLeft="0" nVehSeen="32" meanSpeed="0.00" meanTimeLoss="100.00" meanOccupancy="62.19" maxOccupancy="62.19" meanMaxJamLengthInVehicles="32.00" meanMaxJamLengthInMeters="220.20" maxJamLengthInVehicles="32" maxJamLengthInMeters="220.20" jamLengthInVehiclesSum="3200" jamLengthInMetersSum="22019.55" meanHaltingDuration="1816.50" maxHaltingDuration="1845.00" haltingDurationSum="58128.00" meanIntervalHaltingDuration="100.00" maxIntervalHaltingDuration="100.00" intervalHaltingDurationSum="3200.00" startedHalts="0.00" meanVehicleNumber="32.00" maxVehicleNumber="32" />
   <interval begin="24900.00" end="25000.00" id="e2_L193#1_3_2" sampledSeconds="3200.00" nVehEntered="0" nVehLeft="0" nVehSeen="32" meanSpeed="0.00" meanTimeLoss="100.00" meanOccupancy="62.19" maxOccupancy="62.19" meanMaxJamLengthInVehicles="32.00" meanMaxJamLengthInMeters="220.20" maxJamLengthInVehicles="32" maxJamLengthInMeters="220.20" jamLengthInVehiclesSum="3200" jamLengthInMetersSum="22019.55" meanHaltingDuration="1916.50" maxHaltingDuration="1945.00" haltingDurationSum="61328.00" meanIntervalHaltingDuration="100.00" maxIntervalHaltingDuration="100.00" intervalHaltingDurationSum="3200.00" startedHalts="0.00" meanVehicleNumber="32.00" maxVehicleNumber="32" />
   <interval begin="25000.00" end="25100.00" id="e2_L193#1_3_2" sampledSeconds="3200.00" nVehEntered="0" nVehLeft="0" nVehSeen="32" meanSpeed="0.00" meanTimeLoss="100.00" meanOccupancy="62.19" maxOccupancy="62.19" meanMaxJamLengthInVehicles="32.00" meanMaxJamLengthInMeters="220.20" maxJamLengthInVehicles="32" maxJamLengthInMeters="220.20" jamLengthInVehiclesSum="3200" jamLengthInMetersSum="22019.55" meanHaltingDuration="2016.50" maxHaltingDuration="2045.00" haltingDurationSum="64528.00" meanIntervalHaltingDuration="100.00" maxIntervalHaltingDuration="100.00" intervalHaltingDurationSum="3200.00" startedHalts="0.00" meanVehicleNumber="32.00" maxVehicleNumber="32" />
   <interval begin="25100.00" end="25200.00" id="e2_L193#1_3_2" sampledSeconds="3200.00" nVehEntered="0" nVehLeft="0" nVehSeen="32" meanSpeed="0.00" meanTimeLoss="100.00" meanOccupancy="62.19" maxOccupancy="62.19" meanMaxJamLengthInVehicles="32.00" meanMaxJamLengthInMeters="220.20" maxJamLengthInVehicles="32" maxJamLengthInMeters="220.20" jamLengthInVehiclesSum="3200" jamLengthInMetersSum="22019.55" meanHaltingDuration="2116.50" maxHaltingDuration="2145.00" haltingDurationSum="67728.00" meanIntervalHaltingDuration="100.00" maxIntervalHaltingDuration="100.00" intervalHaltingDurationSum="3200.00" startedHalts="0.00" meanVehicleNumber="32.00" maxVehicleNumber="32" />
   <interval begin="25200.00" end="25300.00" id="e2_L193#1_3_2" sampledSeconds="3200.00" nVehEntered="0" nVehLeft="0" nVehSeen="32" meanSpeed="0.00" meanTimeLoss="100.00" meanOccupancy="62.19" maxOccupancy="62.19" meanMaxJamLengthInVehicles="32.00" meanMaxJamLengthInMeters="220.20" maxJamLengthInVehicles="32" maxJamLengthInMeters="220.20" jamLengthInVehiclesSum="3200" jamLengthInMetersSum="22019.55" meanHaltingDuration="2216.50" maxHaltingDuration="2245.00" haltingDurationSum="70928.00" meanIntervalHaltingDuration="100.00" maxIntervalHaltingDuration="100.00" intervalHaltingDurationSum="3200.00" startedHalts="0.00" meanVehicleNumber="32.00" maxVehicleNumber="32" />
   <interval begin="25300.00" end="25400.00" id="e2_L193#1_3_2" sampledSeconds="3200.00" nVehEntered="0" nVehLeft="0" nVehSeen="32" meanSpeed="0.00" meanTimeLoss="100.00" meanOccupancy="62.19" maxOccupancy="62.19" meanMaxJamLengthInVehicles="32.00" meanMaxJamLengthInMeters="220.20" maxJamLengthInVehicles="32" maxJamLengthInMeters="220.20" jamLengthInVehiclesSum="3200" jamLengthInMetersSum="22019.55" meanHaltingDuration="2316.50" maxHaltingDuration="2345.00" haltingDurationSum="74128.00" meanIntervalHaltingDuration="100.00" maxIntervalHaltingDuration="100.00" intervalHaltingDurationSum="3200.00" startedHalts="0.00" meanVehicleNumber="32.00" maxVehicleNumber="32" />
   <interval begin="25400.00" end="25500.00" id="e2_L193#1_3_2" sampledSeconds="3200.00" nVehEntered="0" nVehLeft="0" nVehSeen="32" meanSpeed="0.00" meanTimeLoss="100.00" meanOccupancy="62.19" maxOccupancy="62.19" meanMaxJamLengthInVehicles="32.00" meanMaxJamLengthInMeters="220.20" maxJamLengthInVehicles="32" maxJamLengthInMeters="220.20" jamLengthInVehiclesSum="3200" jamLengthInMetersSum="22019.55" meanHaltingDuration="2416.50" maxHaltingDuration="2445.00" haltingDurationSum="77328.00" meanIntervalHaltingDuration="100.00" maxIntervalHaltingDuration="100.00" intervalHaltingDurationSum="3200.00" startedHalts="0.00" meanVehicleNumber="32.00" maxVehicleNumber="32" />
   <interval begin="25500.00" end="25600.00" id="e2_L193#1_3_2" sampledSeconds="3086.45" nVehEntered="0" nVehLeft="7" nVehSeen="32" meanSpeed="0.03" meanTimeLoss="96.23" meanOccupancy="59.93" maxOccupancy="62.19" meanMaxJamLengthInVehicles="29.90" meanMaxJamLengthInMeters="206.78" maxJamLengthInVehicles="32" maxJamLengthInMeters="231.17" jamLengthInVehiclesSum="3047" jamLengthInMetersSum="21064.56" meanHaltingDuration="1883.17" maxHaltingDuration="2531.00" haltingDurationSum="67794.00" meanIntervalHaltingDuration="73.44" maxIntervalHaltingDuration="100.00" intervalHaltingDurationSum="2644.00" startedHalts="10.00" meanVehicleNumber="30.87" maxVehicleNumber="32" />
   <interval begin="25600.00" end="25700.00" id="e2_L193#1_3_2" sampledSeconds="2004.80" nVehEntered="0" nVehLeft="9" nVehSeen="25" meanSpeed="0.06" meanTimeLoss="79.83" meanOccupancy="38.76" maxOccupancy="48.48" meanMaxJamLengthInVehicles="18.90" meanMaxJamLengthInMeters="150.25" maxJamLengthInVehicles="24" maxJamLengthInMeters="178.25" jamLengthInVehiclesSum="1970" jamLengthInMetersSum="15532.91" meanHaltingDuration="1671.20" maxHaltingDuration="2614.00" haltingDurationSum="41780.00" meanIntervalHaltingDuration="67.64" maxIntervalHaltingDuration="100.00" intervalHaltingDurationSum="1691.00" startedHalts="10.00" meanVehicleNumber="20.05" maxVehicleNumber="25" />
   <interval begin="25700.00" end="25800.00" id="e2_L193#1_3_2" sampledSeconds="873.74" nVehEntered="1" nVehLeft="16" nVehSeen="17" meanSpeed="1.66" meanTimeLoss="44.55" meanOccupancy="16.67" maxOccupancy="30.85" meanMaxJamLengthInVehicles="7.08" meanMaxJamLengthInMeters="47.09" maxJamLengthInVehicles="14" maxJamLengthInMeters="94.36" jamLengthInVehiclesSum="709" jamLengthInMetersSum="4713.33" meanHaltingDuration="1416.53" maxHaltingDuration="2664.00" haltingDurationSum="21248.00" meanIntervalHaltingDuration="31.33" maxIntervalHaltingDuration="70.00" intervalHaltingDurationSum="470.00" startedHalts="6.00" meanVehicleNumber="8.77" maxVehicleNumber="16" />