<?xml version="1.0" encoding="UTF-8"?>

<!-- generated on Sun Feb 17 15:57:00 2019 by 
<configuration xmlns:xsi="http://www.w3.org/2001/XMLSchema-instance" xsi:noNamespaceSchemaLocation="http://sumo.dlr.de/xsd/Configuration.xsd">

    <input>
        <net-file value="/home/sda/Documents/sumo-sathorn-ray/models/sathorn-morning/sathorn_w_fixed_20160404.net.xml"/>
        <route-files value="/home/sda/Documents/sumo-sathorn-ray/models/sathorn-morning/Great-route/sathorn_w_20160422edit2.rou.xml"/>
        <additional-files value="/home/sda/Documents/sumo-sathorn-ray/models/sathorn-morning/sathon_wide_tls_20160418_edited.add.xml,/home/sda/Documents/sumo-sathorn-ray/detectors/sathorn_w_detectors.add.xml"/>
    </input>

    <time>
        <begin value="21600"/>
        <end value="32400"/>
        <step-length value="1"/>
    </time>

    <processing>
        <no-internal-links value="true"/>
        <ignore-junction-blocker value="-1"/>
        <time-to-teleport value="-1"/>
        <eager-insert value="true"/>
        <time-to-impatience value="300"/>
    </processing>

    <report>
        <no-warnings value="true"/>
    </report>

    <random_number>
        <random value="false"/>
        <seed value="20"/>
    </random_number>

    <gui_only>
        <gui-settings-file value="/home/sda/Documents/sumo-sathorn-ray/gui-settings/gui-settings-file-surasak.xml"/>
        <quit-on-end value="true"/>
        <start value="true"/>
        <tracker-interval value="1"/>
    </gui_only>

</configuration>
-->

<detector xmlns:xsi="http://www.w3.org/2001/XMLSchema-instance" xsi:noNamespaceSchemaLocation="http://sumo.dlr.de/xsd/det_e2_file.xsd">
   <interval begin="21600.00" end="21700.00" id="e2_L197#1_0_1" sampledSeconds="0.00" nVehEntered="0" nVehLeft="0" nVehSeen="0" meanSpeed="-1.00" meanTimeLoss="-1.00" meanOccupancy="0.00" maxOccupancy="0.00" meanMaxJamLengthInVehicles="0.00" meanMaxJamLengthInMeters="0.00" maxJamLengthInVehicles="0" maxJamLengthInMeters="0.00" jamLengthInVehiclesSum="0" jamLengthInMetersSum="0.00" meanHaltingDuration="0.00" maxHaltingDuration="0.00" haltingDurationSum="0.00" meanIntervalHaltingDuration="0.00" maxIntervalHaltingDuration="0.00" intervalHaltingDurationSum="0.00" startedHalts="0.00" meanVehicleNumber="0.00" maxVehicleNumber="0" />
   <interval begin="21700.00" end="21800.00" id="e2_L197#1_0_1" sampledSeconds="0.00" nVehEntered="0" nVehLeft="0" nVehSeen="0" meanSpeed="-1.00" meanTimeLoss="-1.00" meanOccupancy="0.00" maxOccupancy="0.00" meanMaxJamLengthInVehicles="0.00" meanMaxJamLengthInMeters="0.00" maxJamLengthInVehicles="0" maxJamLengthInMeters="0.00" jamLengthInVehiclesSum="0" jamLengthInMetersSum="0.00" meanHaltingDuration="0.00" maxHaltingDuration="0.00" haltingDurationSum="0.00" meanIntervalHaltingDuration="0.00" maxIntervalHaltingDuration="0.00" intervalHaltingDurationSum="0.00" startedHalts="0.00" meanVehicleNumber="0.00" maxVehicleNumber="0" />
   <interval begin="21800.00" end="21900.00" id="e2_L197#1_0_1" sampledSeconds="177.98" nVehEntered="14" nVehLeft="6" nVehSeen="14" meanSpeed="11.26" meanTimeLoss="1.27" meanOccupancy="3.71" maxOccupancy="16.90" meanMaxJamLengthInVehicles="0.00" meanMaxJamLengthInMeters="0.00" maxJamLengthInVehicles="0" maxJamLengthInMeters="0.00" jamLengthInVehiclesSum="0" jamLengthInMetersSum="0.00" meanHaltingDuration="0.00" maxHaltingDuration="0.00" haltingDurationSum="0.00" meanIntervalHaltingDuration="0.00" maxIntervalHaltingDuration="0.00" intervalHaltingDurationSum="0.00" startedHalts="0.00" meanVehicleNumber="1.88" maxVehicleNumber="9" />
   <interval begin="21900.00" end="22000.00" id="e2_L197#1_0_1" sampledSeconds="425.23" nVehEntered="25" nVehLeft="29" nVehSeen="33" meanSpeed="11.34" meanTimeLoss="1.12" meanOccupancy="8.72" maxOccupancy="17.56" meanMaxJamLengthInVehicles="0.00" meanMaxJamLengthInMeters="0.00" maxJamLengthInVehicles="0" maxJamLengthInMeters="0.00" jamLengthInVehiclesSum="0" jamLengthInMetersSum="0.00" meanHaltingDuration="0.00" maxHaltingDuration="0.00" haltingDurationSum="0.00" meanIntervalHaltingDuration="0.00" maxIntervalHaltingDuration="0.00" intervalHaltingDurationSum="0.00" startedHalts="0.00" meanVehicleNumber="4.46" maxVehicleNumber="9" />
   <interval begin="22000.00" end="22100.00" id="e2_L197#1_0_1" sampledSeconds="605.41" nVehEntered="31" nVehLeft="22" nVehSeen="35" meanSpeed="6.91" meanTimeLoss="7.72" meanOccupancy="12.95" maxOccupancy="27.46" meanMaxJamLengthInVehicles="2.19" meanMaxJamLengthInMeters="13.40" maxJamLengthInVehicles="6" maxJamLengthInMeters="39.70" jamLengthInVehiclesSum="219" jamLengthInMetersSum="1340.24" meanHaltingDuration="37.33" maxHaltingDuration="82.00" haltingDurationSum="224.00" meanIntervalHaltingDuration="37.33" maxIntervalHaltingDuration="82.00" intervalHaltingDurationSum="224.00" startedHalts="7.00" meanVehicleNumber="6.20" maxVehicleNumber="13" />
   <interval begin="22100.00" end="22200.00" id="e2_L197#1_0_1" sampledSeconds="2188.51" nVehEntered="32" nVehLeft="22" nVehSeen="45" meanSpeed="1.06" meanTimeLoss="44.50" meanOccupancy="46.33" maxOccupancy="54.62" meanMaxJamLengthInVehicles="18.72" meanMaxJamLengthInMeters="128.62" maxJamLengthInVehicles="23" maxJamLengthInMeters="158.84" jamLengthInVehiclesSum="1873" jamLengthInMetersSum="12866.64" meanHaltingDuration="81.00" maxHaltingDuration="182.00" haltingDurationSum="2106.00" meanIntervalHaltingDuration="72.38" maxIntervalHaltingDuration="100.00" intervalHaltingDurationSum="1882.00" startedHalts="23.00" meanVehicleNumber="22.04" maxVehicleNumber="26" />
   <interval begin="22200.00" end="22300.00" id="e2_L197#1_0_1" sampledSeconds="2648.12" nVehEntered="23" nVehLeft="15" nVehSeen="46" meanSpeed="0.27" meanTimeLoss="56.33" meanOccupancy="55.92" maxOccupancy="63.44" meanMaxJamLengthInVehicles="24.07" meanMaxJamLengthInMeters="167.86" maxJamLengthInVehicles="31" maxJamLengthInMeters="217.45" jamLengthInVehiclesSum="2536" jamLengthInMetersSum="17664.07" meanHaltingDuration="99.02" maxHaltingDuration="244.00" haltingDurationSum="4654.00" meanIntervalHaltingDuration="54.45" maxIntervalHaltingDuration="100.00" intervalHaltingDurationSum="2559.00" startedHalts="27.00" meanVehicleNumber="26.61" maxVehicleNumber="32" />
   <interval begin="22300.00" end="22400.00" id="e2_L197#1_0_1" sampledSeconds="3076.28" nVehEntered="4" nVehLeft="4" nVehSeen="35" meanSpeed="0.15" meanTimeLoss="86.83" meanOccupancy="63.70" maxOccupancy="65.81" meanMaxJamLengthInVehicles="26.47" meanMaxJamLengthInMeters="183.19" maxJamLengthInVehicles="32" maxJamLengthInMeters="220.15" jamLengthInVehiclesSum="2948" jamLengthInMetersSum="20356.21" meanHaltingDuration="63.74" maxHaltingDuration="250.00" haltingDurationSum="5418.00" meanIntervalHaltingDuration="35.28" maxIntervalHaltingDuration="100.00" intervalHaltingDurationSum="2999.00" startedHalts="57.00" meanVehicleNumber="30.80" maxVehicleNumber="33" />
   <interval begin="22400.00" end="22500.00" id="e2_L197#1_0_1" sampledSeconds="3100.00" nVehEntered="0" nVehLeft="0" nVehSeen="31" meanSpeed="0.00" meanTimeLoss="100.00" meanOccupancy="65.48" maxOccupancy="65.48" meanMaxJamLengthInVehicles="31.00" meanMaxJamLengthInMeters="214.35" maxJamLengthInVehicles="31" maxJamLengthInMeters="214.36" jamLengthInVehiclesSum="3100" jamLengthInMetersSum="21435.14" meanHaltingDuration="146.03" maxHaltingDuration="238.00" haltingDurationSum="4527.00" meanIntervalHaltingDuration="100.00" maxIntervalHaltingDuration="100.00" intervalHaltingDurationSum="3100.00" startedHalts="0.00" meanVehicleNumber="31.00" maxVehicleNumber="31" />
   <interval begin="22500.00" end="22600.00" id="e2_L197#1_0_1" sampledSeconds="3100.00" nVehEntered="0" nVehLeft="0" nVehSeen="31" meanSpeed="0.00" meanTimeLoss="100.00" meanOccupancy="65.48" maxOccupancy="65.48" meanMaxJamLengthInVehicles="31.00" meanMaxJamLengthInMeters="214.35" maxJamLengthInVehicles="31" maxJamLengthInMeters="214.35" jamLengthInVehiclesSum="3100" jamLengthInMetersSum="21435.10" meanHaltingDuration="246.03" maxHaltingDuration="338.00" haltingDurationSum="7627.00" meanIntervalHaltingDuration="100.00" maxIntervalHaltingDuration="100.00" intervalHaltingDurationSum="3100.00" startedHalts="0.00" meanVehicleNumber="31.00" maxVehicleNumber="31" />
   <interval begin="22600.00" end="22700.00" id="e2_L197#1_0_1" sampledSeconds="3100.00" nVehEntered="0" nVehLeft="0" nVehSeen="31" meanSpeed="0.00" meanTimeLoss="100.00" meanOccupancy="65.48" maxOccupancy="65.48" meanMaxJamLengthInVehicles="31.00" meanMaxJamLengthInMeters="214.35" maxJamLengthInVehicles="31" maxJamLengthInMeters="214.35" jamLengthInVehiclesSum="3100" jamLengthInMetersSum="21435.10" meanHaltingDuration="346.03" maxHaltingDuration="438.00" haltingDurationSum="10727.00" meanIntervalHaltingDuration="100.00" maxIntervalHaltingDuration="100.00" intervalHaltingDurationSum="3100.00" startedHalts="0.00" meanVehicleNumber="31.00" maxVehicleNumber="31" />
   <interval begin="22700.00" end="22800.00" id="e2_L197#1_0_1" sampledSeconds="3100.00" nVehEntered="0" nVehLeft="0" nVehSeen="31" meanSpeed="0.00" meanTimeLoss="100.00" meanOccupancy="65.48" maxOccupancy="65.48" meanMaxJamLengthInVehicles="31.00" meanMaxJamLengthInMeters="214.35" maxJamLengthInVehicles="31" maxJamLengthInMeters="214.35" jamLengthInVehiclesSum="3100" jamLengthInMetersSum="21435.10" meanHaltingDuration="446.03" maxHaltingDuration="538.00" haltingDurationSum="13827.00" meanIntervalHaltingDuration="100.00" maxIntervalHaltingDuration="100.00" intervalHaltingDurationSum="3100.00" startedHalts="0.00" meanVehicleNumber="31.00" maxVehicleNumber="31" />
   <interval begin="22800.00" end="22900.00" id="e2_L197#1_0_1" sampledSeconds="3100.00" nVehEntered="0" nVehLeft="0" nVehSeen="31" meanSpeed="0.00" meanTimeLoss="