<?xml version="1.0" encoding="UTF-8"?>

<!-- generated on Sun Feb 17 15:57:00 2019 by 
<configuration xmlns:xsi="http://www.w3.org/2001/XMLSchema-instance" xsi:noNamespaceSchemaLocation="http://sumo.dlr.de/xsd/Configuration.xsd">

    <input>
        <net-file value="/home/sda/Documents/sumo-sathorn-ray/models/sathorn-morning/sathorn_w_fixed_20160404.net.xml"/>
        <route-files value="/home/sda/Documents/sumo-sathorn-ray/models/sathorn-morning/Great-route/sathorn_w_20160422edit2.rou.xml"/>
        <additional-files value="/home/sda/Documents/sumo-sathorn-ray/models/sathorn-morning/sathon_wide_tls_20160418_edited.add.xml,/home/sda/Documents/sumo-sathorn-ray/detectors/sathorn_w_detectors.add.xml"/>
    </input>

    <time>
        <begin value="21600"/>
        <end value="32400"/>
        <step-length value="1"/>
    </time>

    <processing>
        <no-internal-links value="true"/>
        <ignore-junction-blocker value="-1"/>
        <time-to-teleport value="-1"/>
        <eager-insert value="true"/>
        <time-to-impatience value="300"/>
    </processing>

    <report>
        <no-warnings value="true"/>
    </report>

    <random_number>
        <random value="false"/>
        <seed value="20"/>
    </random_number>

    <gui_only>
        <gui-settings-file value="/home/sda/Documents/sumo-sathorn-ray/gui-settings/gui-settings-file-surasak.xml"/>
        <quit-on-end value="true"/>
        <start value="true"/>
        <tracker-interval value="1"/>
    </gui_only>

</configuration>
-->

<detector xmlns:xsi="http://www.w3.org/2001/XMLSchema-instance" xsi:noNamespaceSchemaLocation="http://sumo.dlr.de/xsd/det_e2_file.xsd">
   <interval begin="21600.00" end="21700.00" id="e2_L40_1_1" sampledSeconds="0.00" nVehEntered="0" nVehLeft="0" nVehSeen="0" meanSpeed="-1.00" meanTimeLoss="-1.00" meanOccupancy="0.00" maxOccupancy="0.00" meanMaxJamLengthInVehicles="0.00" meanMaxJamLengthInMeters="0.00" maxJamLengthInVehicles="0" maxJamLengthInMeters="0.00" jamLengthInVehiclesSum="0" jamLengthInMetersSum="0.00" meanHaltingDuration="0.00" maxHaltingDuration="0.00" haltingDurationSum="0.00" meanIntervalHaltingDuration="0.00" maxIntervalHaltingDuration="0.00" intervalHaltingDurationSum="0.00" startedHalts="0.00" meanVehicleNumber="0.00" maxVehicleNumber="0" />
   <interval begin="21700.00" end="21800.00" id="e2_L40_1_1" sampledSeconds="0.00" nVehEntered="0" nVehLeft="0" nVehSeen="0" meanSpeed="-1.00" meanTimeLoss="-1.00" meanOccupancy="0.00" maxOccupancy="0.00" meanMaxJamLengthInVehicles="0.00" meanMaxJamLengthInMeters="0.00" maxJamLengthInVehicles="0" maxJamLengthInMeters="0.00" jamLengthInVehiclesSum="0" jamLengthInMetersSum="0.00" meanHaltingDuration="0.00" maxHaltingDuration="0.00" haltingDurationSum="0.00" meanIntervalHaltingDuration="0.00" maxIntervalHaltingDuration="0.00" intervalHaltingDurationSum="0.00" startedHalts="0.00" meanVehicleNumber="0.00" maxVehicleNumber="0" />
   <interval begin="21800.00" end="21900.00" id="e2_L40_1_1" sampledSeconds="0.00" nVehEntered="0" nVehLeft="0" nVehSeen="0" meanSpeed="-1.00" meanTimeLoss="-1.00" meanOccupancy="0.00" maxOccupancy="0.00" meanMaxJamLengthInVehicles="0.00" meanMaxJamLengthInMeters="0.00" maxJamLengthInVehicles="0" maxJamLengthInMeters="0.00" jamLengthInVehiclesSum="0" jamLengthInMetersSum="0.00" meanHaltingDuration="0.00" maxHaltingDuration="0.00" haltingDurationSum="0.00" meanIntervalHaltingDuration="0.00" maxIntervalHaltingDuration="0.00" intervalHaltingDurationSum="0.00" startedHalts="0.00" meanVehicleNumber="0.00" maxVehicleNumber="0" />
   <interval begin="21900.00" end="22000.00" id="e2_L40_1_1" sampledSeconds="0.00" nVehEntered="0" nVehLeft="0" nVehSeen="0" meanSpeed="-1.00" meanTimeLoss="-1.00" meanOccupancy="0.00" maxOccupancy="0.00" meanMaxJamLengthInVehicles="0.00" meanMaxJamLengthInMeters="0.00" maxJamLengthInVehicles="0" maxJamLengthInMeters="0.00" jamLengthInVehiclesSum="0" jamLengthInMetersSum="0.00" meanHaltingDuration="0.00" maxHaltingDuration="0.00" haltingDurationSum="0.00" meanIntervalHaltingDuration="0.00" maxIntervalHaltingDuration="0.00" intervalHaltingDurationSum="0.00" startedHalts="0.00" meanVehicleNumber="0.00" maxVehicleNumber="0" />
   <interval begin="22000.00" end="22100.00" id="e2_L40_1_1" sampledSeconds="0.00" nVehEntered="0" nVehLeft="0" nVehSeen="0" meanSpeed="-1.00" meanTimeLoss="-1.00" meanOccupancy="0.00" maxOccupancy="0.00" meanMaxJamLengthInVehicles="0.00" meanMaxJamLengthInMeters="0.00" maxJamLengthInVehicles="0" maxJamLengthInMeters="0.00" jamLengthInVehiclesSum="0" jamLengthInMetersSum="0.00" meanHaltingDuration="0.00" maxHaltingDuration="0.00" haltingDurationSum="0.00" meanIntervalHaltingDuration="0.00" maxIntervalHaltingDuration="0.00" intervalHaltingDurationSum="0.00" startedHalts="0.00" meanVehicleNumber="0.00" maxVehicleNumber="0" />
   <interval begin="22100.00" end="22200.00" id="e2_L40_1_1" sampledSeconds="0.00" nVehEntered="0" nVehLeft="0" nVehSeen="0" meanSpeed="-1.00" meanTimeLoss="-1.00" meanOccupancy="0.00" maxOccupancy="0.00" meanMaxJamLengthInVehicles="0.00" meanMaxJamLengthInMeters="0.00" maxJamLengthInVehicles="0" maxJamLengthInMeters="0.00" jamLengthInVehiclesSum="0" jamLengthInMetersSum="0.00" meanHaltingDuration="0.00" maxHaltingDuration="0.00" haltingDurationSum="0.00" meanIntervalHaltingDuration="0.00" maxIntervalHaltingDuration="0.00" intervalHaltingDurationSum="0.00" startedHalts="0.00" meanVehicleNumber="0.00" maxVehicleNumber="0" />
   <interval begin="22200.00" end="22300.00" id="e2_L40_1_1" sampledSeconds="0.00" nVehEntered="0" nVehLeft="0" nVehSeen="0" meanSpeed="-1.00" meanTimeLoss="-1.00" meanOccupancy="0.00" maxOccupancy="0.00" meanMaxJamLengthInVehicles="0.00" meanMaxJamLengthInMeters="0.00" maxJamLengthInVehicles="0" maxJamLengthInMeters="0.00" jamLengthInVehiclesSum="0" jamLengthInMetersSum="0.00" meanHaltingDuration="0.00" maxHaltingDuration="0.00" haltingDurationSum="0.00" meanIntervalHaltingDuration="0.00" maxIntervalHaltingDuration="0.00" intervalHaltingDurationSum="0.00" startedHalts="0.00" meanVehicleNumber="0.00" maxVehicleNumber="0" />
   <interval begin="22300.00" end="22400.00" id="e2_L40_1_1" sampledSeconds="0.00" nVehEntered="0" nVehLeft="0" nVehSeen="0" meanSpeed="-1.00" meanTimeLoss="-1.00" meanOccupancy="0.00" maxOccupancy="0.00" meanMaxJamLengthInVehicles="0.00" meanMaxJamLengthInMeters="0.00" maxJamLengthInVehicles="0" maxJamLengthInMeters="0.00" jamLengthInVehiclesSum="0" jamLengthInMetersSum="0.00" meanHaltingDuration="0.00" maxHaltingDuration="0.00" haltingDurationSum="0.00" meanIntervalHaltingDuration="0.00" maxIntervalHaltingDuration="0.00" intervalHaltingDurationSum="0.00" startedHalts="0.00" meanVehicleNumber="0.00" maxVehicleNumber="0" />
   <interval begin="22400.00" end="22500.00" id="e2_L40_1_1" sampledSeconds="0.00" nVehEntered="0" nVehLeft="0" nVehSeen="0" meanSpeed="-1.00" meanTimeLoss="-1.00" meanOccupancy="0.00" maxOccupancy="0.00" meanMaxJamLengthInVehicles="0.00" meanMaxJamLengthInMeters="0.00" maxJamLengthInVehicles="0" maxJamLengthInMeters="0.00" jamLengthInVehiclesSum="0" jamLengthInMetersSum="0.00" meanHaltingDuration="0.00" maxHaltingDuration="0.00" haltingDurationSum="0.00" meanIntervalHaltingDuration="0.00" maxIntervalHaltingDuration="0.00" intervalHaltingDurationSum="0.00" startedHalts="0.00" meanVehicleNumber="0.00" maxVehicleNumber="0" />
   <interval begin="22500.00" end="22600.00" id="e2_L40_1_1" sampledSeconds="0.00" nVehEntered="0" nVehLeft="0" nVehSeen="0" meanSpeed="-1.00" meanTimeLoss="-1.00" meanOccupancy="0.00" maxOccupancy="0.00" meanMaxJamLengthInVehicles="0.00" meanMaxJamLengthInMeters="0.00" maxJamLengthInVehicles="0" maxJamLengthInMeters="0.00" jamLengthInVehiclesSum="0" jamLengthInMetersSum="0.00" meanHaltingDuration="0.00" maxHaltingDuration="0.00" haltingDurationSum="0.00" meanIntervalHaltingDuration="0.00" maxIntervalHaltingDuration="0.00" intervalHaltingDurationSum="0.00" startedHalts="0.00" meanVehicleNumber="0.00" maxVehicleNumber="0" />
   <interval begin="22600.00" end="22700.00" id="e2_L40_1_1" sampledSeconds="0.00" nVehEntered="0" nVehLeft="0" nVehSeen="0" meanSpeed="-1.00" meanTimeLoss="-1.00" meanOccupancy="0.00" maxOccupancy="0.00" meanMaxJamLengthInVehicles="0.00" meanMaxJamLengthInMeters="0.00" maxJamLengthInVehicles="0" maxJamLengthInMeters="0.00" jamLengthInVehiclesSum="0" jamLengthInMetersSum="0.00" meanHaltingDuration="0.00" maxHaltingDuration="0.00" haltingDurationSum="0.00" meanIntervalHaltingDuration="0.00" maxIntervalHaltingDuration="0.00" intervalHaltingDurationSum="0.00" startedHalts="0.00" meanVehicleNumber="0.00" maxVehicleNumber="0" />
   <interval begin="22700.00" end="22800.00" id="e2_L40_1_1" sampledSeconds="128.26" nVehEntered="11" nVehLeft="10" nVehSeen="11" meanSpeed="11.85" meanTimeLoss="0.61" meanOccupancy="3.39" maxOccupancy="10.87" meanMaxJamLengthInVehicles="0.00" meanMaxJamLengthInMeters="0.00" maxJamLengthInVehicles="0" maxJamLengthInMeters="0.00" jamLengthInVehiclesSum="0" jamLengthInMetersSum="0.00" meanHaltingDuration="0.00" maxHaltingDuration="0.00" haltingDurationSum="0.00" meanIntervalHaltingDuration="0.00" maxIntervalHaltingDuration="0.00" intervalHaltingDurationSum="0.00" startedHalts="0.00" meanVehicleNumber="1.36" maxVehicleNumber="4" />
   <interval begin="22800.00" end="22900.00" id="e2_L40_1_1" sampledSeconds="148.95" nVehEntered="13" nVehLeft="13" nVehSeen="14" meanSpeed="11.52" meanTimeLoss="0.83" meanOccupancy="3.83" maxOccupancy="8.15" meanMaxJamLengthInVehicles="0.00" meanMaxJamLengthInMeters="0.00" maxJamLengthInVehicles="0" maxJamLengthInMeters="0.00" jamLengthInVehiclesSum="0" jamLengthInMetersSum="0.00" meanHaltingDuration="0.00" maxHaltingDuration="0.00" haltingDurationSum="0.00" meanIntervalHaltingDuration="0.00" maxIntervalHaltingDuration="0.00" intervalHaltingDurationSum="0.00" startedHalts="0.00" meanVehicleNumber="1.60" maxVehicleNumber="4" />
   <interval begin="22900.00" end="23000.00" id="e2_L40_1_1" sampledSeconds="116.69" nVehEntered="11" nVehLeft="12" nVehSeen="12" meanSpeed="11.34" meanTimeLoss="0.90" meanOccupancy="2.97" maxOccupancy="8.15" meanMaxJamLengthInVehicles="0.00" meanMaxJamLengthInMeters="0.00" maxJamLengthInVehicles="0" maxJamLengthInMeters="0.00" jamLengthInVehiclesSum="0" jamLengthInMetersSum="0.00" meanHaltingDuration="0.00" maxHaltingDuration="0.00" haltingDurationSum="0.00" meanIntervalHaltingDuration="0.00" maxIntervalHaltingDuration="0.00" intervalHaltingDurationSum="0.00" startedHalts="0.00" meanVehicleNumber="1.25" maxVehicleNumber="3" />
   <interval begin="23000.00" end="23100.00" id="e2_L40_1_1" sampledSeconds="33.99" nVehEntered="3" nVehLeft="2" nVehSeen="3" meanSpeed="11.78" meanTimeLoss="0.66" meanOccupancy="0.92" maxOccupancy="5.44" meanMaxJamLengthInVehicles="0.00" meanMaxJamLengthInMeters="0.00" maxJamLengthInVehicles="0" maxJamLengthInMeters="0.00" jamLengthInVehiclesSum="0" jamLengthInMetersSum="0.00" meanHaltingDuration="0.00" maxHaltingDuration="0.00" haltingDurationSum="0.00" meanIntervalHaltingDuration="0.00" maxIntervalHaltingDuration="0.00" intervalHaltingDurationSum="0.00" startedHalts="0.00" meanVehicleNumber="0.36" maxVehicleNumber="2" />
   <interval begin="23100.00" end="23200.00" id="e2_L40_1_1" sampledSeconds="112.62" nVehEntered="10" nVehLeft="10" nVehSeen="11" meanSpeed="10.75" meanTimeLoss="1.43" meanOccupancy="2.86" maxOccupancy="8.15" meanMaxJamLengthInVehicles="0.00" meanMaxJamLengthInMeters="0.00" maxJamLengthInVehicles="0" maxJamLengthInMeters="0.00" jamLengthInVehiclesSum="0" jamLengthInMetersSum="0.00" meanHaltingDuration="0.00" maxHaltingDuration="0.00" haltingDurationSum="0.00" meanIntervalHaltingDuration="0.00" maxIntervalHaltingDuration="0.00" intervalHaltingDurationSum="0.00" startedHalts="0.00" meanVehicleNumber="1.20" maxVehicleNumber="3" />
   <interval begin="23200.00" end="23300.00" id="e2_L40_1_1" sampledSeconds="160.36" nVehEntered="9" nVehLeft="6" nVehSeen="10" meanSpeed="6.04" meanTimeLoss="8.29" meanOccupancy="4.32" maxOccupancy="10.87" meanMaxJamLengthInVehicles="0.62" meanMaxJamLengthInMeters="6.35" maxJamLengthInVehicles="3" maxJamLengthInMeters="32.72" jamLengthInVehiclesSum="62" jamLengthInMetersSum="634.74" meanHaltingDuration="16.50" maxHaltingDuration="26.00" haltingDurationSum="66.00" meanIntervalHaltingDuration="16.50" maxIntervalHaltingDuration="26.00" intervalHaltingDurationSum="66.00" startedHalts="4.00" meanVehicleNumber="1.66" maxVehicleNumber="4" />
   <interval begin="23300.00" end="23400.00" id="e2_L40_1_1" sampledSeconds="819.59" nVehEntered="21" nVehLeft="16" nVehSeen="25" meanSpeed="1.93" meanTimeLoss="27.72" meanOccupancy="22.20" maxOccupancy="32.61" meanMaxJamLengthInVehicles="4.82" meanMaxJamLengthInMeters="46.98" maxJamLengthInVehicles="11" maxJamLengthInMeters="114.10" jamLengthInVehiclesSum="538" jamLengthInMetersSum="5016.80" meanHaltingDuration="15.08" maxHaltingDuration="61.00" haltingDurationSum="392.00" meanIntervalHaltingDuration="12.58" maxIntervalHaltingDuration="36.00" intervalHaltingDurationSum="327.00" startedHalts="34.00" meanVehicleNumber="8.28" maxVehicleNumber="12" />
   <interval begin="23400.00" end="23500.00" id="e2_L40_1_1" sampledSeconds="844.76" nVehEntered="13" nVehLeft="13" nVehSeen="22" meanSpeed="0.67" meanTimeLoss="36.33" meanOccupancy="22.89" maxOccupancy="27.18" meanMaxJamLengthInVehicles="6.06" meanMaxJamLengthInMeters="74.29" maxJamLengthInVehicles="9" maxJamLengthInMeters="127.21" jamLengthInVehiclesSum="716" jamLengthInMetersSum="8131.61" meanHaltingDuration="25.90" maxHaltingDuration="88.00" haltingDurationSum="518.00" meanIntervalHaltingDuration="24.80" maxIntervalHaltingDuration="88.00" intervalHaltingDurationSum="496.00" startedHalts="23.00" meanVehicleNumber="8.47" maxVehicleNumber="10" />
   <interval begin="23500.00" end="23600.00" id="e2_L40_1_1" sampledSeconds="1162.32" nVehEntered="4" nVehLeft="1" nVehSeen="13" meanSpeed="0.29" meanTimeLoss="87.33" meanOccupancy="31.61" maxOccupancy="32.61" meanMaxJamLengthInVehicles="11.17" meanMaxJamLengthInMeters="76.15" maxJamLengthInVehicles="12" maxJamLengthInMeters="103.18" jamLengthInVehiclesSum="1119" jamLengthInMetersSum="7623.79" meanHaltingDuration="128.83" maxHaltingDuration="188.00" haltingDurationSum="1546.00" meanIntervalHaltingDuration="93.42" maxIntervalHaltingDuration="100.00" intervalHaltingDurationSum="1121.00" startedHalts="5.00" meanVehicleNumber="11.64" maxVehicleNumber="12" />
   <interval begin="23600.00" end="23700.00" id="e2_L40_1_1" sampledSeconds="1459.29" nVehEntered="5" nVehLeft="0" nVehSeen="17" meanSpeed="0.25" meanTimeLoss="84.15" meanOccupancy="39.70" maxOccupancy="46.20" meanMaxJamLengthInVehicles="14.14" meanMaxJamLengthInMeters="96.48" maxJamLengthInVehicles="17" maxJamLengthInMeters="116.48" jamLengthInVehiclesSum="1414" jamLengthInMetersSum="9648.23" meanHaltingDuration="174.41" maxHaltingDuration="288.00" haltingDurationSum="2965.00" meanIntervalHaltingDuration="83.47" maxIntervalHaltingDuration="100.00" intervalHaltingDurationSum="1419.00" startedHalts="5.00" meanVehicleNumber="14.63" maxVehicleNumber="17" />
   <interval begin="23700.00" end="23800.00" id="e2_L40_1_1" sampledSeconds="1731.28" nVehEntered="1" nVehLeft="0" nVehSeen="18" meanSpeed="0.03" meanTimeLoss="95.96" meanOccupancy="47.06" maxOccupancy="48.92" meanMaxJamLengthInVehicles="17.24" meanMaxJamLengthInMeters="118.15" maxJamLengthInVehicles="18" maxJamLengthInMeters="123.47" jamLengthInVehiclesSum="1724" jamLengthInMetersSum="11815.45" meanHaltingDuration="260.56" maxHaltingDuration="388.00" haltingDurationSum="4690.00" meanIntervalHaltingDuration="95.83" maxIntervalHaltingDuration="100.00" intervalHaltingDurationSum="1725.00" startedHalts="1.00" meanVehicleNumber="17.32" maxVehicleNumber="18" />
   <interval begin="23800.00" end="23900.00" id="e2_L40_1_1" sampledSeconds="2015.88" nVehEntered="6" nVehLeft="0" nVehSeen="24" meanSpeed="0.08" meanTimeLoss="83.47" meanOccupancy="54.85" maxOccupancy="65.22" meanMaxJamLengthInVehicles="19.87" meanMaxJamLengthInMeters="136.54" maxJamLengthInVehicles="23" maxJamLengthInMeters="158.42" jamLengthInVehiclesSum="1987" jamLengthInMetersSum="13654.22" meanHaltingDuration="278.46" maxHaltingDuration="488.00" haltingDurationSum="6683.00" meanIntervalHaltingDuration="83.04" maxIntervalHaltingDuration="100.00" intervalHaltingDurationSum="1993.00" startedHalts="6.00" meanVehicleNumber="20.19" maxVehicleNumber="24" />
   <interval begin="23900.00" end="24000.00" id="e2_L40_1_1" sampledSeconds="2492.54" nVehEntered="1" nVehLeft="0" nVehSeen="25" meanSpeed="0.00" meanTimeLoss="99.70" meanOccupancy="66.24" maxOccupancy="66.32" meanMaxJamLengthInVehicles="24.91" meanMaxJamLengthInMeters="169.27" maxJamLengthInVehicles="25" maxJamLengthInMeters="169.65" jamLengthInVehiclesSum="2491" jamLengthInMetersSum="16926.80" meanHaltingDuration="367.00" maxHaltingDuration="588.00" haltingDurationSum="9175.00" meanIntervalHaltingDuration="99.68" maxIntervalHaltingDuration="100.00" intervalHaltingDurationSum="2492.00" startedHalts="1.00" meanVehicleNumber="24.93" maxVehicleNumber="25" />
   <interval begin="24000.00" end="24100.00" id="e2_L40_1_1" sampledSeconds="2500.00" nVehEntered="0" nVehLeft="0" nVehSeen="25" meanSpeed="0.00" meanTimeLoss="100.00" meanOccupancy="66.32" maxOccupancy="66.32" meanMaxJamLengthInVehicles="25.00" meanMaxJamLengthInMeters="169.65" maxJamLengthInVehicles="25" maxJamLengthInMeters="169.65" jamLengthInVehiclesSum="2500" jamLengthInMetersSum="16964.92" meanHaltingDuration="467.00" maxHaltingDuration="688.00" haltingDurationSum="11675.00" meanIntervalHaltingDuration="100.00" maxIntervalHaltingDuration="100.00" intervalHaltingDurationSum="2500.00" startedHalts="0.00" meanVehicleNumber="25.00" maxVehicleNumber="25" />
   <interval begin="24100.00" end="24200.00" id="e2_L40_1_1" sampledSeconds="2500.00" nVehEntered="0" nVehLeft="0" nVehSeen="25" meanSpeed="0.00" meanTimeLoss="100.00" meanOccupancy="66.32" maxOccupancy="66.32" meanMaxJamLengthInVehicles="25.00" meanMaxJamLengthInMeters="169.65" maxJamLengthInVehicles="25" maxJamLengthInMeters="169.65" jamLengthInVehiclesSum="2500" jamLengthInMetersSum="16964.92" meanHaltingDuration="567.00" maxHaltingDuration="788.00" haltingDurationSum="14175.00" meanIntervalHaltingDuration="100.00" maxIntervalHaltingDuration="100.00" intervalHaltingDurationSum="2500.00" startedHalts="0.00" meanVehicleNumber="25.00" maxVehicleNumber="25" />
   <interval begin="24200.00" end="24300.00" id="e2_L40_1_1" sampledSeconds="2500.00" nVehEntered="0" nVehLeft="0" nVehSeen="25" meanSpeed="0.00" meanTimeLoss="100.00" meanOccupancy="66.32" maxOccupancy="66.32" meanMaxJamLengthInVehicles="25.00" meanMaxJamLengthInMeters="169.65" maxJamLengthInVehicles="25" maxJamLengthInMeters="169.65" jamLengthInVehiclesSum="2500" jamLengthInMetersSum="16964.92" meanHaltingDuration="667.00" maxHaltingDuration="888.00" haltingDurationSum="16675.00" meanIntervalHaltingDuration="100.00" maxIntervalHaltingDuration="100.00" intervalHaltingDurationSum="2500.00" startedHalts="0.00" meanVehicleNumber="25.00" maxVehicleNumber="25" />
   <interval begin="24300.00" end="24400.00" id="e2_L40_1_1" sampledSeconds="2469.93" nVehEntered="0" nVehLeft="1" nVehSeen="25" meanSpeed="0.01" meanTimeLoss="98.73" meanOccupancy="65.45" maxOccupancy="66.32" meanMaxJamLengthInVehicles="24.55" meanMaxJamLengthInMeters="167.84" maxJamLengthInVehicles="25" maxJamLengthInMeters="169.65" jamLengthInVehiclesSum="2458" jamLengthInMetersSum="16799.82" meanHaltingDuration="683.43" maxHaltingDuration="956.00" haltingDurationSum="19136.00" meanIntervalHaltingDuration="87.89" maxIntervalHaltingDuration="100.00" intervalHaltingDurationSum="2461.00" startedHalts="4.00" meanVehicleNumber="24.70" maxVehicleNumber="25" />
   <interval begin="24400.00" end="24500.00" id="e2_L40_1_1" sampledSeconds="2057.71" nVehEntered="0" nVehLeft="4" nVehSeen="24" meanSpeed="0.02" meanTimeLoss="85.60" meanOccupancy="54.16" maxOccupancy="63.60" meanMaxJamLengthInVehicles="20.43" meanMaxJamLengthInMeters="138.27" maxJamLengthInVehicles="24" maxJamLengthInMeters="167.77" jamLengthInVehiclesSum="2043" jamLengthInMetersSum="13827.04" meanHaltingDuration="684.21" maxHaltingDuration="1035.00" haltingDurationSum="16421.00" meanIntervalHaltingDuration="84.54" maxIntervalHaltingDuration="100.00" intervalHaltingDurationSum="2029.00" startedHalts="3.00" meanVehicleNumber="20.59" maxVehicleNumber="24" />
   <interval begin="24500.00" end="24600.00" id="e2_L40_1_1" sampledSeconds="2000.00" nVehEntered="0" nVehLeft="0" nVehSeen="20" meanSpeed="0.00" meanTimeLoss="100.00" meanOccupancy="52.73" maxOccupancy="52.73" meanMaxJamLengthInVehicles="20.00" meanMaxJamLengthInMeters="134.69" maxJamLengthInVehicles="20" maxJamLengthInMeters="134.69" jamLengthInVehiclesSum="2000" jamLengthInMetersSum="13469.40" meanHaltingDuration="915.40" maxHaltingDuration="1135.00" haltingDurationSum="18308.00" meanIntervalHaltingDuration="100.00" maxIntervalHaltingDuration="100.00" intervalHaltingDurationSum="2000.00" startedHalts="0.00" meanVehicleNumber="20.00" maxVehicleNumber="20" />
   <interval begin="24600.00" end="24700.00" id="e2_L40_1_1" sampledSeconds="2075.00" nVehEntered="2" nVehLeft="1" nVehSeen="22" meanSpeed="0.01" meanTimeLoss="94.21" meanOccupancy="54.77" maxOccupancy="58.17" meanMaxJamLengthInVehicles="20.62" meanMaxJamLengthInMeters="144.41" maxJamLengthInVehicles="22" maxJamLengthInMeters="165.04" jamLengthInVehiclesSum="2063" jamLengthInMetersSum="14445.21" meanHaltingDuration="924.68" maxHaltingDuration="1235.00" haltingDurationSum="20343.00" meanIntervalHaltingDuration="92.50" maxIntervalHaltingDuration="100.00" intervalHaltingDurationSum="2035.00" startedHalts="3.00" meanVehicleNumber="20.75" maxVehicleNumber="22" />
   <interval begin="24700.00" end="24800.00" id="e2_L40_1_1" sampledSeconds="2274.24" nVehEntered="5" nVehLeft="2" nVehSeen="26" meanSpeed="0.03" meanTimeLoss="87.24" meanOccupancy="59.16" maxOccupancy="63.49" meanMaxJamLengthInVehicles="22.15" meanMaxJamLengthInMeters="164.04" maxJamLengthInVehicles="24" maxJamLengthInMeters="174.11" jamLengthInVehiclesSum="2249" jamLengthInMetersSum="16581.36" meanHaltingDuration="805.36" maxHaltingDuration="1335.00" haltingDurationSum="22550.00" meanIntervalHaltingDuration="80.07" maxIntervalHaltingDuration="100.00" intervalHaltingDurationSum="2242.00" startedHalts="9.00" meanVehicleNumber="22.75" maxVehicleNumber="24" />
   <interval begin="24800.00" end="24900.00" id="e2_L40_1_1" sampledSeconds="1969.85" nVehEntered="9" nVehLeft="18" nVehSeen="33" meanSpeed="0.08" meanTimeLoss="59.33" meanOccupancy="51.77" maxOccupancy="63.48" meanMaxJamLengthInVehicles="18.84" meanMaxJamLengthInMeters="150.22" maxJamLengthInVehicles="24" maxJamLengthInMeters="171.41" jamLengthInVehiclesSum="1925" jamLengthInMetersSum="15346.09" meanHaltingDuration="611.94" maxHaltingDuration="1435.00" haltingDurationSum="10403.00" meanIntervalHaltingDuration="57.23" maxIntervalHaltingDuration="100.00" intervalHaltingDurationSum="973.00" startedHalts="9.00" meanVehicleNumber="19.71" maxVehicleNumber="24" />
   <interval begin="24900.00" end="25000.00" id="e2_L40_1_1" sampledSeconds="1338.00" nVehEntered="0" nVehLeft="2" nVehSeen="15" meanSpeed="0.03" meanTimeLoss="89.01" meanOccupancy="34.66" maxOccupancy="39.06" meanMaxJamLengthInVehicles="13.17" meanMaxJamLengthInMeters="167.58" maxJamLengthInVehicles="15" maxJamLengthInMeters="170.14" jamLengthInVehiclesSum="1323" jamLengthInMetersSum="16769.58" meanHaltingDuration="889.46" maxHaltingDuration="1535.00" haltingDurationSum="11563.00" meanIntervalHaltingDuration="99.69" maxIntervalHaltingDuration="100.00" intervalHaltingDurationSum="1296.00" startedHalts="4.00" meanVehicleNumber="13.38" maxVehicleNumber="15" />
   <interval begin="25000.00" end="25100.00" id="e2_L40_1_1" sampledSeconds="1300.00" nVehEntered="0" nVehLeft="0" nVehSeen="13" meanSpeed="0.00" meanTimeLoss="100.00" meanOccupancy="33.62" maxOccupancy="33.62" meanMaxJamLengthInVehicles="13.00" meanMaxJamLengthInMeters="170.14" maxJamLengthInVehicles="13" maxJamLengthInMeters="170.14" jamLengthInVehiclesSum="1300" jamLengthInMetersSum="17014.41" meanHaltingDuration="989.46" maxHaltingDuration="1635.00" haltingDurationSum="12863.00" meanIntervalHaltingDuration="100.00" maxIntervalHaltingDuration="100.00" intervalHaltingDurationSum="1300.00" startedHalts="0.00" meanVehicleNumber="13.00" maxVehicleNumber="13" />
   <interval begin="25100.00" end="25200.00" id="e2_L40_1_1" sampledSeconds="1291.00" nVehEntered="4" nVehLeft="4" nVehSeen="17" meanSpeed="0.09" meanTimeLoss="75.37" meanOccupancy="33.37" maxOccupancy="33.62" meanMaxJamLengthInVehicles="12.03" meanMaxJamLengthInMeters="156.83" maxJamLengthInVehicles="13" maxJamLengthInMeters="170.19" jamLengthInVehiclesSum="1257" jamLengthInMetersSum="16206.03" meanHaltingDuration="550.00" maxHaltingDuration="1579.00" haltingDurationSum="8800.00" meanIntervalHaltingDuration="61.50" maxIntervalHaltingDuration="100.00" intervalHaltingDurationSum="984.00" startedHalts="7.00" meanVehicleNumber="12.91" maxVehicleNumber="13" />
   <interval begin="25200.00" end="25300.00" id="e2_L40_1_1" sampledSeconds="1300.00" nVehEntered="0" nVehLeft="0" nVehSeen="13" meanSpeed="0.00" meanTimeLoss="100.00" meanOccupancy="33.60" maxOccupancy="33.60" meanMaxJamLengthInVehicles="13.00" meanMaxJamLengthInMeters="170.19" maxJamLengthInVehicles="13" maxJamLengthInMeters="170.19" jamLengthInVehiclesSum="1300" jamLengthInMetersSum="17018.60" meanHaltingDuration="776.62" maxHaltingDuration="1679.00" haltingDurationSum="10096.00" meanIntervalHaltingDuration="100.00" maxIntervalHaltingDuration="100.00" intervalHaltingDurationSum="1300.00" startedHalts="0.00" meanVehicleNumber="13.00" maxVehicleNumber="13" />
   <interval begin="25300.00" end="25400.00" id="e2_L40_1_1" sampledSeconds="1300.00" nVehEntered="0" nVehLeft="0" nVehSeen="13" meanSpeed="0.00" meanTimeLoss="100.00" meanOccupancy="33.60" maxOccupancy="33.60" meanMaxJamLengthInVehicles="13.00" meanMaxJamLengthInMeters="170.19" maxJamLengthInVehicles="13" maxJamLengthInMeters="170.19" jamLengthInVehiclesSum="1300" jamLengthInMetersSum="17018.60" meanHaltingDuration="876.62" maxHaltingDuration="1779.00" haltingDurationSum="11396.00" meanIntervalHaltingDuration="100.00" maxIntervalHaltingDuration="100.00" intervalHaltingDurationSum="1300.00" startedHalts="0.00" meanVehicleNumber="13.00" maxVehicleNumber="13" />
   <interval begin="25400.00" end="25500.00" id="e2_L40_1_1" sampledSeconds="1300.00" nVehEntered="0" nVehLeft="0" nVehSeen="13" meanSpeed="0.00" meanTimeLoss="100.00" meanOccupancy="33.60" maxOccupancy="33.60" meanMaxJamLengthInVehicles="13.00" meanMaxJamLengthInMeters="170.19" maxJamLengthInVehicles="13" maxJamLengthInMeters="170.19" jamLengthInVehiclesSum="1300" jamLengthInMetersSum="17018.60" meanHaltingDuration="976.62" maxHaltingDuration="1879.00" haltingDurationSum="12696.00" meanIntervalHaltingDuration="100.00" maxIntervalHaltingDuration="100.00" intervalHaltingDurationSum="1300.00" startedHalts="0.00" meanVehicleNumber="13.00" maxVehicleNumber="13" />
   <interval begin="25500.00" end="25600.00" id="e2_L40_1_1" sampledSeconds="1300.00" nVehEntered="0" nVehLeft="0" nVehSeen="13" meanSpeed="0.00" meanTimeLoss="100.00" meanOccupancy="33.60" maxOccupancy="33.60" meanMaxJamLengthInVehicles="13.00" meanMaxJamLengthInMeters="170.19" maxJamLengthInVehicles="13" maxJamLengthInMeters="170.19" jamLengthInVehiclesSum="1300" jamLengthInMetersSum="17018.60" meanHaltingDuration="1076.62" maxHaltingDuration="1979.00" haltingDurationSum="13996.00" meanIntervalHaltingDuration="100.00" maxIntervalHaltingDuration="100.00" intervalHaltingDurationSum="1300.00" startedHalts="0.00" meanVehicleNumber="13.00" maxVehicleNumber="13" />
   <interval begin="25600.00" end="25700.00" id="e2_L40_1_1" sampledSeconds="1300.00" nVehEntered="0" nVehLeft="0" nVehSeen="13" meanSpeed="0.00" meanTimeLoss="100.00" meanOccupancy="33.60" maxOccupancy="33.60" meanMaxJamLengthInVehicles="13.00" meanMaxJamLengthInMeters="170.19" maxJamLengthInVehicles="13" maxJamLengthInMeters="170.19" jamLengthInVehiclesSum="1300" jamLengthInMetersSum="17018.60" meanHaltingDuration="1176.62" maxHaltingDuration="2079.00" haltingDurationSum="15296.00" meanIntervalHaltingDuration="100.00" maxIntervalHaltingDuration="100.00" intervalHaltingDurationSum="1300.00" startedHalts="0.00" meanVehicleNumber="13.00" maxVehicleNumber="13" />
   <interval begin="25700.00" end="25800.00" id="e2_L40_1_1" sampledSeconds="1256.85" nVehEntered="0" nVehLeft="1" nVehSeen="13" meanSpeed="0.00" meanTimeLoss="96.65" meanOccupancy="32.44" maxOccupancy="33.60" meanMaxJamLengthInVehicles="12.55" meanMaxJamLengthInMeters="167.02" maxJamLengthInVehicles="13" maxJamLengthInMeters="170.35" jamLengthInVehiclesSum="1255" jamLengthInMetersSum="16702.34" meanHaltingDuration="1273.15" maxHaltingDuration="2179.00" haltingDurationSum="16551.00" meanIntervalHaltingDuration="96.54" maxIntervalHaltingDuration="100.00" intervalHaltingDurationSum="1255.00" startedHalts="0.00" meanVehicleNumber="12.57" maxVehicleNumber="13" />
   <interval begin="25800.00" end="25900.00" id="e2_L40_1_1" sampledSeconds="1200.00" nVehEntered="0" nVehLeft="0" nVehSeen="12" meanSpeed="0.00" meanTimeLoss="100.00" meanOccupancy="30.99" maxOccupancy="30.99" meanMaxJamLengthInVehicles="12.00" meanMaxJamLengthInMeters="163.15" maxJamLengthInVehicles="12" maxJamLengthInMeters="163.15" jamLengthInVehiclesSum="1200" jamLengthInMetersSum="16315.30" meanHaltingDuration="1406.33" maxHaltingDuration="2279.00" haltingDurationSum="16876.00" meanIntervalHaltingDuration="100.00" maxIntervalHaltingDuration="100.00" intervalHaltingDurationSum="1200.00" startedHalts="0.00" meanVehicleNumber="12.00" maxVehicleNumber="12" />