<?xml version="1.0" encoding="UTF-8"?>

<!-- generated on Sun Feb 17 15:57:00 2019 by 
<configuration xmlns:xsi="http://www.w3.org/2001/XMLSchema-instance" xsi:noNamespaceSchemaLocation="http://sumo.dlr.de/xsd/Configuration.xsd">

    <input>
        <net-file value="/home/sda/Documents/sumo-sathorn-ray/models/sathorn-morning/sathorn_w_fixed_20160404.net.xml"/>
        <route-files value="/home/sda/Documents/sumo-sathorn-ray/models/sathorn-morning/Great-route/sathorn_w_20160422edit2.rou.xml"/>
        <additional-files value="/home/sda/Documents/sumo-sathorn-ray/models/sathorn-morning/sathon_wide_tls_20160418_edited.add.xml,/home/sda/Documents/sumo-sathorn-ray/detectors/sathorn_w_detectors.add.xml"/>
    </input>

    <time>
        <begin value="21600"/>
        <end value="32400"/>
        <step-length value="1"/>
    </time>

    <processing>
        <no-internal-links value="true"/>
        <ignore-junction-blocker value="-1"/>
        <time-to-teleport value="-1"/>
        <eager-insert value="true"/>
        <time-to-impatience value="300"/>
    </processing>

    <report>
        <no-warnings value="true"/>
    </report>

    <random_number>
        <random value="false"/>
        <seed value="20"/>
    </random_number>

    <gui_only>
        <gui-settings-file value="/home/sda/Documents/sumo-sathorn-ray/gui-settings/gui-settings-file-surasak.xml"/>
        <quit-on-end value="true"/>
        <start value="true"/>
        <tracker-interval value="1"/>
    </gui_only>

</configuration>
-->

<detector xmlns:xsi="http://www.w3.org/2001/XMLSchema-instance" xsi:noNamespaceSchemaLocation="http://sumo.dlr.de/xsd/det_e2_file.xsd">
   <interval begin="21600.00" end="21700.00" id="e2_L10189_1_0" sampledSeconds="0.00" nVehEntered="0" nVehLeft="0" nVehSeen="0" meanSpeed="-1.00" meanTimeLoss="-1.00" meanOccupancy="0.00" maxOccupancy="0.00" meanMaxJamLengthInVehicles="0.00" meanMaxJamLengthInMeters="0.00" maxJamLengthInVehicles="0" maxJamLengthInMeters="0.00" jamLengthInVehiclesSum="0" jamLengthInMetersSum="0.00" meanHaltingDuration="0.00" maxHaltingDuration="0.00" haltingDurationSum="0.00" meanIntervalHaltingDuration="0.00" maxIntervalHaltingDuration="0.00" intervalHaltingDurationSum="0.00" startedHalts="0.00" meanVehicleNumber="0.00" maxVehicleNumber="0" />
   <interval begin="21700.00" end="21800.00" id="e2_L10189_1_0" sampledSeconds="14.31" nVehEntered="3" nVehLeft="2" nVehSeen="3" meanSpeed="4.00" meanTimeLoss="3.24" meanOccupancy="2.30" maxOccupancy="17.25" meanMaxJamLengthInVehicles="0.06" meanMaxJamLengthInMeters="0.28" maxJamLengthInVehicles="1" maxJamLengthInMeters="4.62" jamLengthInVehiclesSum="6" jamLengthInMetersSum="27.72" meanHaltingDuration="7.00" maxHaltingDuration="7.00" haltingDurationSum="7.00" meanIntervalHaltingDuration="7.00" maxIntervalHaltingDuration="7.00" intervalHaltingDurationSum="7.00" startedHalts="1.00" meanVehicleNumber="0.17" maxVehicleNumber="2" />
   <interval begin="21800.00" end="21900.00" id="e2_L10189_1_0" sampledSeconds="113.00" nVehEntered="6" nVehLeft="7" nVehSeen="7" meanSpeed="1.35" meanTimeLoss="14.40" meanOccupancy="16.20" maxOccupancy="52.39" meanMaxJamLengthInVehicles="0.68" meanMaxJamLengthInMeters="3.37" maxJamLengthInVehicles="4" maxJamLengthInMeters="22.89" jamLengthInVehiclesSum="68" jamLengthInMetersSum="336.81" meanHaltingDuration="11.57" maxHaltingDuration="41.00" haltingDurationSum="81.00" meanIntervalHaltingDuration="10.57" maxIntervalHaltingDuration="41.00" intervalHaltingDurationSum="74.00" startedHalts="6.00" meanVehicleNumber="1.18" maxVehicleNumber="4" />
   <interval begin="21900.00" end="22000.00" id="e2_L10189_1_0" sampledSeconds="38.31" nVehEntered="11" nVehLeft="10" nVehSeen="11" meanSpeed="9.75" meanTimeLoss="0.75" meanOccupancy="5.29" maxOccupancy="30.80" meanMaxJamLengthInVehicles="0.00" meanMaxJamLengthInMeters="0.00" maxJamLengthInVehicles="0" maxJamLengthInMeters="0.00" jamLengthInVehiclesSum="0" jamLengthInMetersSum="0.00" meanHaltingDuration="0.00" maxHaltingDuration="0.00" haltingDurationSum="0.00" meanIntervalHaltingDuration="0.00" maxIntervalHaltingDuration="0.00" intervalHaltingDurationSum="0.00" startedHalts="0.00" meanVehicleNumber="0.47" maxVehicleNumber="2" />
   <interval begin="22000.00" end="22100.00" id="e2_L10189_1_0" sampledSeconds="21.00" nVehEntered="7" nVehLeft="8" nVehSeen="8" meanSpeed="11.71" meanTimeLoss="0.17" meanOccupancy="2.80" maxOccupancy="28.59" meanMaxJamLengthInVehicles="0.00" meanMaxJamLengthInMeters="0.00" maxJamLengthInVehicles="0" maxJamLengthInMeters="0.00" jamLengthInVehiclesSum="0" jamLengthInMetersSum="0.00" meanHaltingDuration="0.00" maxHaltingDuration="0.00" haltingDurationSum="0.00" meanIntervalHaltingDuration="0.00" maxIntervalHaltingDuration="0.00" intervalHaltingDurationSum="0.00" startedHalts="0.00" meanVehicleNumber="0.28" maxVehicleNumber="2" />
   <interval begin="22100.00" end="22200.00" id="e2_L10189_1_0" sampledSeconds="113.23" nVehEntered="23" nVehLeft="22" nVehSeen="23" meanSpeed="5.28" meanTimeLoss="2.83" meanOccupancy="16.06" maxOccupancy="37.19" meanMaxJamLengthInVehicles="0.26" meanMaxJamLengthInMeters="1.30" maxJamLengthInVehicles="2" maxJamLengthInMeters="11.77" jamLengthInVehiclesSum="26" jamLengthInMetersSum="129.75" meanHaltingDuration="6.20" maxHaltingDuration="12.00" haltingDurationSum="31.00" meanIntervalHaltingDuration="6.20" maxIntervalHaltingDuration="12.00" intervalHaltingDurationSum="31.00" startedHalts="5.00" meanVehicleNumber="1.30" maxVehicleNumber="3" />
   <interval begin="22200.00" end="22300.00" id="e2_L10189_1_0" sampledSeconds="91.92" nVehEntered="23" nVehLeft="23" nVehSeen="24" meanSpeed="8.52" meanTimeLoss="1.22" meanOccupancy="12.85" maxOccupancy="30.80" meanMaxJamLengthInVehicles="0.09" meanMaxJamLengthInMeters="0.42" maxJamLengthInVehicles="1" maxJamLengthInMeters="4.62" jamLengthInVehiclesSum="9" jamLengthInMetersSum="41.58" meanHaltingDuration="10.00" maxHaltingDuration="10.00" haltingDurationSum="10.00" meanIntervalHaltingDuration="10.00" maxIntervalHaltingDuration="10.00" intervalHaltingDurationSum="10.00" startedHalts="1.00" meanVehicleNumber="1.15" maxVehicleNumber="2" />
   <interval begin="22300.00" end="22400.00" id="e2_L10189_1_0" sampledSeconds="120.57" nVehEntered="24" nVehLeft="25" nVehSeen="25" meanSpeed="6.62" meanTimeLoss="2.27" meanOccupancy="17.39" maxOccupancy="46.20" meanMaxJamLengthInVehicles="0.21" meanMaxJamLengthInMeters="1.14" maxJamLengthInVehicles="2" maxJamLengthInMeters="11.62" jamLengthInVehiclesSum="21" jamLengthInMetersSum="113.63" meanHaltingDuration="4.00" maxHaltingDuration="12.00" haltingDurationSum="28.00" meanIntervalHaltingDuration="4.00" maxIntervalHaltingDuration="12.00" intervalHaltingDurationSum="28.00" startedHalts="7.00" meanVehicleNumber="1.47" maxVehicleNumber="4" />
   <interval begin="22400.00" end="22500.00" id="e2_L10189_1_0" sampledSeconds="94.90" nVehEntered="25" nVehLeft="24" nVehSeen="25" meanSpeed="8.10" meanTimeLoss="1.33" meanOccupancy="13.33" maxOccupancy="46.20" meanMaxJamLengthInVehicles="0.14" meanMaxJamLengthInMeters="0.72" maxJamLengthInVehicles="2" maxJamLengthInMeters="11.62" jamLengthInVehiclesSum="14" jamLengthInMetersSum="71.81" meanHaltingDuration="8.00" maxHaltingDuration="10.00" haltingDurationSum="16.00" meanIntervalHaltingDuration="8.00" maxIntervalHaltingDuration="10.00" intervalHaltingDurationSum="16.00" startedHalts="2.00" meanVehicleNumber="1.19" maxVehicleNumber="3" />
   <interval begin="22500.00" end="22600.00" id="e2_L10189_1_0" sampledSeconds="137.98" nVehEntered="21" nVehLeft="21" nVehSeen="22" meanSpeed="4.67" meanTimeLoss="3.93" meanOccupancy="19.81" maxOccupancy="61.60" meanMaxJamLengthInVehicles="0.39" meanMaxJamLengthInMeters="2.31" maxJamLengthInVehicles="3" maxJamLengthInMeters="19.49" jamLengthInVehiclesSum="39" jamLengthInMetersSum="230.50" meanHaltingDuration="10.00" maxHaltingDuration="15.00" haltingDurationSum="40.00" meanIntervalHaltingDuration="10.00" maxIntervalHaltingDuration="15.00" intervalHaltingDurationSum="40.00" startedHalts="6.00" meanVehicleNumber="1.59" maxVehicleNumber="4" />
   <interval begin="22600.00" end="22700.00" id="e2_L10189_1_0" sampledSeconds="92.50" nVehEntered="29" nVehLeft="28" nVehSeen="30" meanSpeed="10.33" meanTimeLoss="0.53" meanOccupancy="12.24" maxOccupancy="30.80" meanMaxJamLengthInVehicles="0.00" meanMaxJamLengthInMeters="0.00" maxJamLengthInVehicles="0" maxJamLengthInMeters="0.00" jamLengthInVehiclesSum="0" jamLengthInMetersSum="0.00" meanHaltingDuration="0.00" maxHaltingDuration="0.00" haltingDurationSum="0.00" meanIntervalHaltingDuration="0.00" maxIntervalHaltingDuration="0.00" intervalHaltingDurationSum="0.00" startedHalts="0.00" meanVehicleNumber="1.20" maxVehicleNumber="2" />
   <interval begin="22700.00" end="22800.00" id="e2_L10189_1_0" sampledSeconds="128.23" nVehEntered="20" nVehLeft="18" nVehSeen="22" meanSpeed="3.98" meanTimeLoss="3.97" meanOccupancy="19.16" maxOccupancy="61.60" meanMaxJamLengthInVehicles="0.58" meanMaxJamLengthInMeters="3.28" maxJamLengthInVehicles="3" maxJamLengthInMeters="18.61" jamLengthInVehiclesSum="58" jamLengthInMetersSum="327.91" meanHaltingDuration="12.20" maxHaltingDuration="34.00" haltingDurationSum="61.00" meanIntervalHaltingDuration="12.20" maxIntervalHaltingDuration="34.00" intervalHaltingDurationSum="61.00" startedHalts="6.00" meanVehicleNumber="1.46" maxVehicleNumber="4" />
   <interval begin="22800.00" end="22900.00" id="e2_L10189_1_0" sampledSeconds="486.43" nVehEntered="2" nVehLeft="1" nVehSeen="6" meanSpeed="0.03" meanTimeLoss="80.85" meanOccupancy="64.33" maxOccupancy="65.05" meanMaxJamLengthInVehicles="4.77" meanMaxJamLengthInMeters="27.90" maxJamLengthInVehicles="5" maxJamLengthInMeters="29.00