<?xml version="1.0" encoding="UTF-8"?>

<!-- generated on Sun Feb 17 15:57:00 2019 by 
<configuration xmlns:xsi="http://www.w3.org/2001/XMLSchema-instance" xsi:noNamespaceSchemaLocation="http://sumo.dlr.de/xsd/Configuration.xsd">

    <input>
        <net-file value="/home/sda/Documents/sumo-sathorn-ray/models/sathorn-morning/sathorn_w_fixed_20160404.net.xml"/>
        <route-files value="/home/sda/Documents/sumo-sathorn-ray/models/sathorn-morning/Great-route/sathorn_w_20160422edit2.rou.xml"/>
        <additional-files value="/home/sda/Documents/sumo-sathorn-ray/models/sathorn-morning/sathon_wide_tls_20160418_edited.add.xml,/home/sda/Documents/sumo-sathorn-ray/detectors/sathorn_w_detectors.add.xml"/>
    </input>

    <time>
        <begin value="21600"/>
        <end value="32400"/>
        <step-length value="1"/>
    </time>

    <processing>
        <no-internal-links value="true"/>
        <ignore-junction-blocker value="-1"/>
        <time-to-teleport value="-1"/>
        <eager-insert value="true"/>
        <time-to-impatience value="300"/>
    </processing>

    <report>
        <no-warnings value="true"/>
    </report>

    <random_number>
        <random value="false"/>
        <seed value="20"/>
    </random_number>

    <gui_only>
        <gui-settings-file value="/home/sda/Documents/sumo-sathorn-ray/gui-settings/gui-settings-file-surasak.xml"/>
        <quit-on-end value="true"/>
        <start value="true"/>
        <tracker-interval value="1"/>
    </gui_only>

</configuration>
-->

<detector xmlns:xsi="http://www.w3.org/2001/XMLSchema-instance" xsi:noNamespaceSchemaLocation="http://sumo.dlr.de/xsd/det_e2_file.xsd">
   <interval begin="21600.00" end="21700.00" id="e2_L237_0_3" sampledSeconds="0.00" nVehEntered="0" nVehLeft="0" nVehSeen="0" meanSpeed="-1.00" meanTimeLoss="-1.00" meanOccupancy="0.00" maxOccupancy="0.00" meanMaxJamLengthInVehicles="0.00" meanMaxJamLengthInMeters="0.00" maxJamLengthInVehicles="0" maxJamLengthInMeters="0.00" jamLengthInVehiclesSum="0" jamLengthInMetersSum="0.00" meanHaltingDuration="0.00" maxHaltingDuration="0.00" haltingDurationSum="0.00" meanIntervalHaltingDuration="0.00" maxIntervalHaltingDuration="0.00" intervalHaltingDurationSum="0.00" startedHalts="0.00" meanVehicleNumber="0.00" maxVehicleNumber="0" />
   <interval begin="21700.00" end="21800.00" id="e2_L237_0_3" sampledSeconds="9.97" nVehEntered="4" nVehLeft="3" nVehSeen="4" meanSpeed="11.89" meanTimeLoss="0.12" meanOccupancy="1.37" maxOccupancy="14.62" meanMaxJamLengthInVehicles="0.00" meanMaxJamLengthInMeters="0.00" maxJamLengthInVehicles="0" maxJamLengthInMeters="0.00" jamLengthInVehiclesSum="0" jamLengthInMetersSum="0.00" meanHaltingDuration="0.00" maxHaltingDuration="0.00" haltingDurationSum="0.00" meanIntervalHaltingDuration="0.00" maxIntervalHaltingDuration="0.00" intervalHaltingDurationSum="0.00" startedHalts="0.00" meanVehicleNumber="0.13" maxVehicleNumber="1" />
   <interval begin="21800.00" end="21900.00" id="e2_L237_0_3" sampledSeconds="114.39" nVehEntered="45" nVehLeft="44" nVehSeen="46" meanSpeed="10.75" meanTimeLoss="0.35" meanOccupancy="13.47" maxOccupancy="58.50" meanMaxJamLengthInVehicles="0.00" meanMaxJamLengthInMeters="0.00" maxJamLengthInVehicles="0" maxJamLengthInMeters="0.00" jamLengthInVehiclesSum="0" jamLengthInMetersSum="0.00" meanHaltingDuration="0.00" maxHaltingDuration="0.00" haltingDurationSum="0.00" meanIntervalHaltingDuration="0.00" maxIntervalHaltingDuration="0.00" intervalHaltingDurationSum="0.00" startedHalts="2.00" meanVehicleNumber="1.38" maxVehicleNumber="7" />
   <interval begin="21900.00" end="22000.00" id="e2_L237_0_3" sampledSeconds="128.11" nVehEntered="42" nVehLeft="44" nVehSeen="44" meanSpeed="8.89" meanTimeLoss="0.83" meanOccupancy="15.98" maxOccupancy="43.59" meanMaxJamLengthInVehicles="0.00" meanMaxJamLengthInMeters="0.00" maxJamLengthInVehicles="0" maxJamLengthInMeters="0.00" jamLengthInVehiclesSum="0" jamLengthInMetersSum="0.00" meanHaltingDuration="0.00" maxHaltingDuration="0.00" haltingDurationSum="0.00" meanIntervalHaltingDuration="0.00" maxIntervalHaltingDuration="0.00" intervalHaltingDurationSum="0.00" startedHalts="2.00" meanVehicleNumber="1.59" maxVehicleNumber="6" />
   <interval begin="22000.00" end="22100.00" id="e2_L237_0_3" sampledSeconds="248.02" nVehEntered="88" nVehLeft="86" nVehSeen="88" meanSpeed="8.40" meanTimeLoss="0.92" meanOccupancy="28.40" maxOccupancy="84.28" meanMaxJamLengthInVehicles="0.00" meanMaxJamLengthInMeters="0.00" maxJamLengthInVehicles="0" maxJamLengthInMeters="0.00" jamLengthInVehiclesSum="0" jamLengthInMetersSum="0.00" meanHaltingDuration="1.00" maxHaltingDuration="1.00" haltingDurationSum="1.00" meanIntervalHaltingDuration="1.00" maxIntervalHaltingDuration="1.00" intervalHaltingDurationSum="1.00" startedHalts="6.00" meanVehicleNumber="2.91" maxVehicleNumber="8" />
   <interval begin="22100.00" end="22200.00" id="e2_L237_0_3" sampledSeconds="103.70" nVehEntered="30" nVehLeft="30" nVehSeen="32" meanSpeed="6.34" meanTimeLoss="1.60" meanOccupancy="11.96" maxOccupancy="43.87" meanMaxJamLengthInVehicles="0.00" meanMaxJamLengthInMeters="0.00" maxJamLengthInVehicles="0" maxJamLengthInMeters="0.00" jamLengthInVehiclesSum="0" jamLengthInMetersSum="0.00" meanHaltingDuration="1.00" maxHaltingDuration="1.00" haltingDurationSum="1.00" meanIntervalHaltingDuration="1.00" maxIntervalHaltingDuration="1.00" intervalHaltingDurationSum="1.00" startedHalts="7.00" meanVehicleNumber="1.23" maxVehicleNumber="6" />
   <interval begin="22200.00" end="22300.00" id="e2_L237_0_3" sampledSeconds="212.69" nVehEntered="78" nVehLeft="80" nVehSeen="80" meanSpeed="10.27" meanTimeLoss="0.47" meanOccupancy="25.61" maxOccupancy="73.12" meanMaxJamLengthInVehicles="0.00" meanMaxJamLengthInMeters="0.00" maxJamLengthInVehicles="0" maxJamLengthInMeters="0.00" jamLengthInVehiclesSum="0" jamLengthInMetersSum="0.00" meanHaltingDuration="0.00" maxHaltingDuration="0.00" haltingDurationSum="0.00" meanIntervalHaltingDuration="0.00" maxIntervalHaltingDuration="0.00" intervalHaltingDurationSum="0.00" startedHalts="1.00" meanVehicleNumber="2.61" maxVehicleNumber="7" />
   <interval begin="22300.00" end="22400.00" id="e2_L237_0_3" sampledSeconds="213.19" nVehEntered="80" nVehLeft="77" nVehSeen="80" meanSpeed="9.22" meanTimeLoss="0.70" meanOccupancy="24.97" maxOccupancy="73.12" meanMaxJamLengthInVehicles="0.00" meanMaxJamLengthInMeters="0.00" maxJamLengthInVehicles="0" maxJamLengthInMeters="0.00" jamLengthInVehiclesSum="0" jamLengthInMetersSum="0.00" meanHaltingDuration="0.00" maxHaltingDuration="0.00" haltingDurationSum="0.00" meanIntervalHaltingDuration="0.00" maxIntervalHaltingDuration="0.00" intervalHaltingDurationSum="0.00" startedHalts="6.00" meanVehicleNumber="2.55" maxVehicleNumber="7" />
   <interval begin="22400.00" end="22500.00" id="e2_L237_0_3" sampledSeconds="102.66" nVehEntered="38" nVehLeft="41" nVehSeen="41" meanSpeed="8.82" meanTimeLoss="0.73" meanOccupancy="12.18" maxOccupancy="58.50" meanMaxJamLengthInVehicles="0.00" meanMaxJamLengthInMeters="0.00" maxJamLengthInVehicles="0" maxJamLengthInMeters="0.00" jamLengthInVehiclesSum="0" jamLengthInMetersSum="0.00" meanHaltingDuration="1.00" maxHaltingDuration="1.00" haltingDurationSum="2.00" meanIntervalHaltingDuration="1.00" maxIntervalHaltingDuration="1.00" intervalHaltingDurationSum="2.00" startedHalts="6.00" meanVehicleNumber="1.30" maxVehicleNumber="5" />
   <interval begin="22500.00" end="22600.00" id="e2_L237_0_3" sampledSeconds="114.38" nVehEntered="39" nVehLeft="39" nVehSeen="39" meanSpeed="9.26" meanTimeLoss="0.75" meanOccupancy="14.54" maxOccupancy="41.89" meanMaxJamLengthInVehicles="0.00" meanMaxJamLengthInMeters="0.00" maxJamLengthInVehicles="0" maxJamLengthInMeters="0.00" jamLengthInVehiclesSum="0" jamLengthInMetersSum="0.00" meanHaltingDuration="0.00" maxHaltingDuration="0.00" haltingDurationSum="0.00" meanIntervalHaltingDuration="0.00" maxIntervalHaltingDuration="0.00" intervalHaltingDurationSum="0.00" startedHalts="0.00" meanVehicleNumber="1.46" maxVehicleNumber="4" />
   <interval begin="22600.00" end="22700.00" id="e2_L237_0_3" sampledSeconds="272.73" nVehEntered="96" nVehLeft="95" nVehSeen="96" meanSpeed="8.78" meanTimeLoss="0.84" meanOccupancy="31.68" maxOccupancy="76.70" meanMaxJamLengthInVehicles="0.01" meanMaxJamLengthInMeters="0.02" maxJamLengthInVehicles="1" maxJamLengthInMeters="1.91" jamLengthInVehiclesSum="1" jamLengthInMetersSum="1.91" meanHaltingDuration="1.50" maxHaltingDuration="2.00" haltingDurationSum="3.00" meanIntervalHaltingDuration="1.50" maxIntervalHaltingDuration="2.00" intervalHaltingDurationSum="3.00" startedHalts="3.00" meanVehicleNumber="3.29" maxVehicleNumber="8" />
   <interval begin="22700.00" end="22800.00" id="e2_L237_0_3" sampledSeconds="87.76" nVehEntered="34" nVehLeft="33" nVehSeen="35" meanSpeed="8.35" meanTimeLoss="0.82" meanOccupancy="10.56" maxOccupancy="63.14" meanMaxJamLengthInVehicles="0.00" meanMaxJamLengthInMeters="0.00" maxJamLengthInVehicles="0" maxJamLengthInMeters="0.00" jamLengthInVehiclesSum="0" jamLengthInMetersSum="0.00" meanHaltingDuration="1.00" maxHaltingDuration="1.00" haltingDurationSum="1.00" meanIntervalHaltingDuration="1.00" maxIntervalHaltingDuration="1.00" intervalHaltingDurationSum="1.00" startedHalts="4.00" meanVehicleNumber="1.07" maxVehicleNumber="6" />
   <interval begin="22800.00" end="22900.00" id="e2_L237_0_3" sampledSeconds="279.67" nVehEntered="47" nVehLeft="45" nVehSeen="49" meanSpeed="4.77" meanTimeLoss="3.51" meanOccupancy="32.71" maxOccupancy="73.12" meanMaxJamLengthInVehicles="1.35" meanMaxJamLengthInMeters="8.45" maxJamLengthInVehicles="4" maxJamLengthInMeters="25.85" jamLengthInVehiclesSum="135" jamLengthInMetersSum="845.11" meanHaltingDuration="34.75" maxHaltingDuration="40.00" haltingDurationSum="139.00" meanIntervalHaltingDuration="34.75" maxIntervalHaltingDuration="40.00" intervalHaltingDurationSum="139.00" startedHalts="4.00" meanVehicleNumber="3.09" maxVehicleNumber="5" />
   <interval begin="22900.00" end="23000.00" id="e2_L237_0_3" sampledSeconds="662.66" nVehEntered="12" nVehLeft="6" nVehSeen="16" meanSpeed="0.29" meanTimeLoss="40.43" meanOccupancy="67.83" maxOccupancy="109.32" meanMaxJamLengthInVehicles="5.80" meanMaxJamLengthInMeters="30.85" maxJamLengthInVehicles="9" maxJamLengthInMeters="35.27" jamLengthInVehiclesSum="634" jamLengthInMetersSum="3284.58" meanHaltingDuration="86.44" maxHaltingDuration="140.00" haltingDurationSum="778.00" meanIntervalHaltingDuration="71.00" maxIntervalHaltingDuration="100.00" intervalHaltingDurationSum="639.00" startedHalts="7.00" meanVehicleNumber="6.67" maxVehicleNumber="10" />
   <interval begin="23000.00" end="23100.00" id="e2_L237_0_3" sampledSeconds="955.49" nVehEntered="22" nVehLeft="23" nVehSeen="32" meanSpeed="0.69" meanTimeLoss="28.21" meanOccupancy="101.27" maxOccupancy="109.32" meanMaxJamLengthInVehicles="7.88" meanMaxJamLengthInMeters="29.99" maxJamLengthInVehicles="9" maxJamLengthInMeters="35.27" jamLengthInVehiclesSum="900" jamLengthInMetersSum="3335.66" meanHaltingDuration="186.44" maxHaltingDuration="240.00" haltingDurationSum="1678.00" meanIntervalHaltingDuration="100.00" maxIntervalHaltingDuration="100.00" intervalHaltingDurationSum="900.00" startedHalts="0.00" meanVehicleNumber="9.68" maxVehicleNumber="11" />
   <interval begin="23100.00" end="23200.00" id="e2_L237_0_3" sampledSeconds="926.65" nVehEntered="11" nVehLeft="11" nVehSeen="20" meanSpeed="0.35" meanTimeLoss="45.04" meanOccupancy="97.91" maxOccupancy="109.32" meanMaxJamLengthInVehicles="8.45" meanMaxJamLengthInMeters="32.67" maxJamLengthInVehicles="9" maxJamLengthInMeters="35.27" jamLengthInVehiclesSum="900" jamLengthInMetersSum="3434.34" meanHaltingDuration="286.44" maxHaltingDuration="340.00" haltingDurationSum="2578.00" meanIntervalHaltingDuration="100.00" maxIntervalHaltingDuration="100.00" intervalHaltingDurationSum="900.00" startedHalts="0.00" meanVehicleNumber="9.33" maxVehicleNumber="10" />
   <interval begin="23200.00" end="23300.00" id="e2_L237_0_3" sampledSeconds="1002.36" nVehEntered="18" nVehLeft="16" nVehSeen="27" meanSpeed="0.51" meanTimeLoss="35.61" meanOccupancy="107.11" maxOccupancy="120.23" meanMaxJamLengthInVehicles="8.31" meanMaxJamLengthInMeters="29.96" maxJamLengthInVehicles="11" maxJamLengthInMeters="35.27" jamLengthInVehiclesSum="950" jamLengthInMetersSum="3352.75" meanHaltingDuration="320.91" maxHaltingDuration="440.00" haltingDurationSum="3530.00" meanIntervalHaltingDuration="86.55" maxIntervalHaltingDuration="100.00" intervalHaltingDurationSum="952.00" startedHalts="2.00" meanVehicleNumber="10.10" maxVehicleNumber="11" />
   <interval begin="23300.00" end="23400.00" id="e2_L237_0_3" sampledSeconds="1100.00" nVehEntered="0" nVehLeft="0" nVehSeen="11" meanSpeed="0.00" meanTimeLoss="100.00" meanOccupancy="119.35" maxOccupancy="119.35" meanMaxJamLengthInVehicles="11.00" meanMaxJamLengthInMeters="35.27" maxJamLengthInVehicles="11" maxJamLengthInMeters="35.27" jamLengthInVehiclesSum="1100" jamLengthInMetersSum="3526.97" meanHaltingDuration="420.91" maxHaltingDuration="540.00" haltingDurationSum="4630.00" meanIntervalHaltingDuration="100.00" maxIntervalHaltingDuration="100.00" intervalHaltingDurationSum="1100.00" startedHalts="0.00" meanVehicleNumber="11.00" maxVehicleNumber="11" />
   <interval begin="23400.00" end="23500.00" id="e2_L237_0_3" sampledSeconds="1100.00" nVehEntered="0" nVehLeft="0" nVehSeen="11" meanSpeed="0.00" meanTimeLoss="100.00" meanOccupancy="119.35" maxOccupancy="119.35" meanMaxJamLengthInVehicles="11.00" meanMaxJamLengthInMeters="35.27" maxJamLengthInVehicles="11" maxJamLengthInMeters="35.27" jamLengthInVehiclesSum="1100" jamLengthInMetersSum="3526.97" meanHaltingDuration="520.91" maxHaltingDuration="640.00" haltingDurationSum="5730.00" meanIntervalHaltingDuration="100.00" maxIntervalHaltingDuration="100.00" intervalHaltingDurationSum="1100.00" startedHalts="0.00" meanVehicleNumber="11.00" maxVehicleNumber="11" />
   <interval begin="23500.00" end="23600.00" id="e2_L237_0_3" sampledSeconds="1106.75" nVehEntered="1" nVehLeft="2" nVehSeen="12" meanSpeed="0.04" meanTimeLoss="91.96" meanOccupancy="120.17" maxOccupancy="132.59" meanMaxJamLengthInVehicles="10.69" meanMaxJamLengthInMeters="34.18" maxJamLengthInVehicles="12" maxJamLengthInMeters="36.52" jamLengthInVehiclesSum="1098" jamLengthInMetersSum="3519.20" meanHaltingDuration="553.82" maxHaltingDuration="735.00" haltingDurationSum="6092.00" meanIntervalHaltingDuration="91.09" maxIntervalHaltingDuration="100.00" intervalHaltingDurationSum="1002.00" startedHalts="1.00" meanVehicleNumber="11.08" maxVehicleNumber="12" />
   <interval begin="23600.00" end="23700.00" id="e2_L237_0_3" sampledSeconds="968.57" nVehEntered="21" nVehLeft="19" nVehSeen="31" meanSpeed="0.35" meanTimeLoss="30.38" meanOccupancy="115.53" maxOccupancy="137.38" meanMaxJamLengthInVehicles="8.25" meanMaxJamLengthInMeters="21.74" maxJamLengthInVehicles="12" maxJamLengthInMeters="35.27" jamLengthInVehiclesSum="881" jamLengthInMetersSum="2269.61" meanHaltingDuration="231.62" maxHaltingDuration="729.00" haltingDurationSum="4864.00" meanIntervalHaltingDuration="42.24" maxIntervalHaltingDuration="100.00" intervalHaltingDurationSum="887.00" startedHalts="21.00" meanVehicleNumber="9.79" maxVehicleNumber="15" />
   <interval begin="23700.00" end="23800.00" id="e2_L237_0_3" sampledSeconds="1200.00" nVehEntered="0" nVehLeft="0" nVehSeen="12" meanSpeed="0.00" meanTimeLoss="100.00" meanOccupancy="137.36" maxOccupancy="137.36" meanMaxJamLengthInVehicles="12.00" meanMaxJamLengthInMeters="35.27" maxJamLengthInVehicles="12" maxJamLengthInMeters="35.27" jamLengthInVehiclesSum="1200" jamLengthInMetersSum="3526.87" meanHaltingDuration="329.83" maxHaltingDuration="817.00" haltingDurationSum="3958.00" meanIntervalHaltingDuration="100.00" maxIntervalHaltingDuration="100.00" intervalHaltingDurationSum="1200.00" startedHalts="0.00" meanVehicleNumber="12.00" maxVehicleNumber="12" />
   <interval begin="23800.00" end="23900.00" id="e2_L237_0_3" sampledSeconds="1200.00" nVehEntered="0" nVehLeft="0" nVehSeen="12" meanSpeed="0.00" meanTimeLoss="100.00" meanOccupancy="137.36" maxOccupancy="137.36" meanMaxJamLengthInVehicles="12.00" meanMaxJamLengthInMeters="35.27" maxJamLengthInVehicles="12" maxJamLengthInMeters="35.27" jamLengthInVehiclesSum="1200" jamLengthInMetersSum="3526.89" meanHaltingDuration="429.83" maxHaltingDuration="917.00" haltingDurationSum="5158.00" meanIntervalHaltingDuration="100.00" maxIntervalHaltingDuration="100.00" intervalHaltingDurationSum="1200.00" startedHalts="0.00" meanVehicleNumber="12.00" maxVehicleNumber="12" />
   <interval begin="23900.00" end="24000.00" id="e2_L237_0_3" sampledSeconds="1238.52" nVehEntered="8" nVehLeft="7" nVehSeen="20" meanSpeed="0.05" meanTimeLoss="61.68" meanOccupancy="144.92" maxOccupancy="166.67" meanMaxJamLengthInVehicles="11.91" meanMaxJamLengthInMeters="33.54" maxJamLengthInVehicles="14" maxJamLengthInMeters="36.32" jamLengthInVehiclesSum="1216" jamLengthInMetersSum="3426.42" meanHaltingDuration="357.19" maxHaltingDuration="1017.00" haltingDurationSum="5715.00" meanIntervalHaltingDuration="66.62" maxIntervalHaltingDuration="100.00" intervalHaltingDurationSum="1066.00" startedHalts="8.00" meanVehicleNumber="12.41" maxVehicleNumber="15" />
   <interval begin="24000.00" end="24100.00" id="e2_L237_0_3" sampledSeconds="1507.62" nVehEntered="35" nVehLeft="31" nVehSeen="48" meanSpeed="0.24" meanTimeLoss="30.81" meanOccupancy="195.07" maxOccupancy="211.64" meanMaxJamLengthInVehicles="12.87" meanMaxJamLengthInMeters="28.67" maxJamLengthInVehicles="17" maxJamLengthInMeters="35.27" jamLengthInVehiclesSum="1414" jamLengthInMetersSum="3206.61" meanHaltingDuration="212.03" maxHaltingDuration="1117.00" haltingDurationSum="6149.00" meanIntervalHaltingDuration="49.31" maxIntervalHaltingDuration="100.00" intervalHaltingDurationSum="1430.00" startedHalts="20.00" meanVehicleNumber="15.30" maxVehicleNumber="19" />
   <interval begin="24100.00" end="24200.00" id="e2_L237_0_3" sampledSeconds="1608.96" nVehEntered="1" nVehLeft="2" nVehSeen="18" meanSpeed="0.03" meanTimeLoss="89.18" meanOccupancy="204.75" maxOccupancy="216.55" meanMaxJamLengthInVehicles="16.02" meanMaxJamLengthInMeters="34.52" maxJamLengthInVehicles="17" maxJamLengthInMeters="36.39" jamLengthInVehiclesSum="1608" jamLengthInMetersSum="3459.92" meanHaltingDuration="355.35" maxHaltingDuration="1206.00" haltingDurationSum="6041.00" meanIntervalHaltingDuration="89.59" maxIntervalHaltingDuration="100.00" intervalHaltingDurationSum="1523.00" startedHalts="2.00" meanVehicleNumber="16.11" maxVehicleNumber="17" />
   <interval begin="24200.00" end="24300.00" id="e2_L237_0_3" sampledSeconds="1583.90" nVehEntered="0" nVehLeft="1" nVehSeen="16" meanSpeed="0.01" meanTimeLoss="98.88" meanOccupancy="195.78" maxOccupancy="199.63" meanMaxJamLengthInVehicles="15.84" meanMaxJamLengthInMeters="35.02" maxJamLengthInVehicles="16" maxJamLengthInMeters="36.22" jamLengthInVehiclesSum="1584" jamLengthInMetersSum="3502.39" meanHaltingDuration="455.60" maxHaltingDuration="1306.00" haltingDurationSum="6834.00" meanIntervalHaltingDuration="100.00" maxIntervalHaltingDuration="100.00" intervalHaltingDurationSum="1500.00" startedHalts="0.00" meanVehicleNumber="15.84" maxVehicleNumber="16" />
   <interval begin="24300.00" end="24400.00" id="e2_L237_0_3" sampledSeconds="1567.40" nVehEntered="5" nVehLeft="4" nVehSeen="20" meanSpeed="0.03" meanTimeLoss="78.17" meanOccupancy="195.53" maxOccupancy="199.59" meanMaxJamLengthInVehicles="15.64" meanMaxJamLengthInMeters="34.92" maxJamLengthInVehicles="16" maxJamLengthInMeters="36.58" jamLengthInVehiclesSum="1564" jamLengthInMetersSum="3492.42" meanHaltingDuration="507.81" maxHaltingDuration="1406.00" haltingDurationSum="8125.00" meanIntervalHaltingDuration="97.44" maxIntervalHaltingDuration="100.00" intervalHaltingDurationSum="1559.00" startedHalts="5.00" meanVehicleNumber="15.69" maxVehicleNumber="18" />
   <interval begin="24400.00" end="24500.00" id="e2_L237_0_3" sampledSeconds="1600.00" nVehEntered="0" nVehLeft="0" nVehSeen="16" meanSpeed="0.00" meanTimeLoss="100.00" meanOccupancy="195.86" maxOccupancy="195.86" meanMaxJamLengthInVehicles="16.00" meanMaxJamLengthInMeters="35.27" maxJamLengthInVehicles="16" maxJamLengthInMeters="35.27" jamLengthInVehiclesSum="1600" jamLengthInMetersSum="3526.93" meanHaltingDuration="607.81" maxHaltingDuration="1506.00" haltingDurationSum="9725.00" meanIntervalHaltingDuration="100.00" maxIntervalHaltingDuration="100.00" intervalHaltingDurationSum="1600.00" startedHalts="0.00" meanVehicleNumber="16.00" maxVehicleNumber="16" />
   <interval begin="24500.00" end="24600.00" id="e2_L237_0_3" sampledSeconds="1600.00" nVehEntered="0" nVehLeft="0" nVehSeen="16" meanSpeed="0.00" meanTimeLoss="100.00" meanOccupancy="195.86" maxOccupancy="195.86" meanMaxJamLengthInVehicles="16.00" meanMaxJamLengthInMeters="35.27" maxJamLengthInVehicles="16" maxJamLengthInMeters="35.27" jamLengthInVehiclesSum="1600" jamLengthInMetersSum="3526.94" meanHaltingDuration="707.81" maxHaltingDuration="1606.00" haltingDurationSum="11325.00" meanIntervalHaltingDuration="100.00" maxIntervalHaltingDuration="100.00" intervalHaltingDurationSum="1600.00" startedHalts="0.00" meanVehicleNumber="16.00" maxVehicleNumber="16" />
   <interval begin="24600.00" end="24700.00" id="e2_L237_0_3" sampledSeconds="1600.00" nVehEntered="0" nVehLeft="0" nVehSeen="16" meanSpeed="0.00" meanTimeLoss="100.00" meanOccupancy="195.86" maxOccupancy="195.86" meanMaxJamLengthInVehicles="16.00" meanMaxJamLengthInMeters="35.27" maxJamLengthInVehicles="16" maxJamLengthInMeters="35.27" jamLengthInVehiclesSum="1600" jamLengthInMetersSum="3526.94" meanHaltingDuration="807.81" maxHaltingDuration="1706.00" haltingDurationSum="12925.00" meanIntervalHaltingDuration="100.00" maxIntervalHaltingDuration="100.00" intervalHaltingDurationSum="1600.00" startedHalts="0.00" meanVehicleNumber="16.00" maxVehicleNumber="16" />
   <interval begin="24700.00" end="24800.00" id="e2_L237_0_3" sampledSeconds="1600.00" nVehEntered="0" nVehLeft="0" nVehSeen="16" meanSpeed="0.00" meanTimeLoss="100.00" meanOccupancy="195.86" maxOccupancy="195.86" meanMaxJamLengthInVehicles="16.00" meanMaxJamLengthInMeters="35.27" maxJamLengthInVehicles="16" maxJamLengthInMeters="35.27" jamLengthInVehiclesSum="1600" jamLengthInMetersSum="3526.94" meanHaltingDuration="907.81" maxHaltingDuration="1806.00" haltingDurationSum="14525.00" meanIntervalHaltingDuration="100.00" maxIntervalHaltingDuration="100.00" intervalHaltingDurationSum="1600.00" startedHalts="0.00" meanVehicleNumber="16.00" maxVehicleNumber="16" />
   <interval begin="24800.00" end="24900.00" id="e2_L237_0_3" sampledSeconds="1600.00" nVehEntered="0" nVehLeft="0" nVehSeen="16" meanSpeed="0.00" meanTimeLoss="100.00" meanOccupancy="195.86" maxOccupancy="195.86" meanMaxJamLengthInVehicles="16.00" meanMaxJamLengthInMeters="35.27" maxJamLengthInVehicles="16" maxJamLengthInMeters="35.27" jamLengthInVehiclesSum="1600" jamLengthInMetersSum="3526.94" meanHaltingDuration="1007.81" maxHaltingDuration="1906.00" haltingDurationSum="16125.00" meanIntervalHaltingDuration="100.00" maxIntervalHaltingDuration="100.00" intervalHaltingDurationSum="1600.00" startedHalts="0.00" meanVehicleNumber="16.00" maxVehicleNumber="16" />
   <interval begin="24900.00" end="25000.00" id="e2_L237_0_3" sampledSeconds="1600.00" nVehEntered="0" nVehLeft="0" nVehSeen="16" meanSpeed="0.00" meanTimeLoss="99.97" meanOccupancy="195.65" maxOccupancy="195.86" meanMaxJamLengthInVehicles="16.00" meanMaxJamLengthInMeters="35.87" maxJamLengthInVehicles="16" maxJamLengthInMeters="36.17" jamLengthInVehiclesSum="1600" jamLengthInMetersSum="3587.39" meanHaltingDuration="1107.81" maxHaltingDuration="2006.00" haltingDurationSum="17725.00" meanIntervalHaltingDuration="100.00" maxIntervalHaltingDuration="100.00" intervalHaltingDurationSum="1600.00" startedHalts="0.00" meanVehicleNumber="16.00" maxVehicleNumber="16" />
   <interval begin="25000.00" end="25100.00" id="e2_L237_0_3" sampledSeconds="1600.00" nVehEntered="0" nVehLeft="0" nVehSeen="16" meanSpeed="0.00" meanTimeLoss="100.00" meanOccupancy="195.86" maxOccupancy="195.86" meanMaxJamLengthInVehicles="16.00" meanMaxJamLengthInMeters="36.17" maxJamLengthInVehicles="16" maxJamLengthInMeters="36.17" jamLengthInVehiclesSum="1600" jamLengthInMetersSum="3616.93" meanHaltingDuration="1207.81" maxHaltingDuration="2106.00" haltingDurationSum="19325.00" meanIntervalHaltingDuration="100.00" maxIntervalHaltingDuration="100.00" intervalHaltingDurationSum="1600.00" startedHalts="0.00" meanVehicleNumber="16.00" maxVehicleNumber="16" />
   <interval begin="25100.00" end="25200.00" id="e2_L237_0_3" sampledSeconds="1600.00" nVehEntered="0" nVehLeft="0" nVehSeen="16" meanSpeed="0.00" meanTimeLoss="100.00" meanOccupancy="195.86" maxOccupancy="195.86" meanMaxJamLengthInVehicles="16.00" meanMaxJamLengthInMeters="36.17" maxJamLengthInVehicles="16" maxJamLengthInMeters="36.17" jamLengthInVehiclesSum="1600" jamLengthInMetersSum="3616.95" meanHaltingDuration="1307.81" maxHaltingDuration="2206.00" haltingDurationSum="20925.00" meanIntervalHaltingDuration="100.00" maxIntervalHaltingDuration="100.00" intervalHaltingDurationSum="1600.00" startedHalts="0.00" meanVehicleNumber="16.00" maxVehicleNumber="16" />
   <interval begin="25200.00" end="25300.00" id="e2_L237_0_3" sampledSeconds="1600.00" nVehEntered="0" nVehLeft="0" nVehSeen="16" meanSpeed="0.00" meanTimeLoss="100.00" meanOccupancy="195.86" maxOccupancy="195.86" meanMaxJamLengthInVehicles="16.00" meanMaxJamLengthInMeters="36.17" maxJamLengthInVehicles="16" maxJamLengthInMeters="36.17" jamLengthInVehiclesSum="1600" jamLengthInMetersSum="3616.95" meanHaltingDuration="1407.81" maxHaltingDuration="2306.00" haltingDurationSum="22525.00" meanIntervalHaltingDuration="100.00" maxIntervalHaltingDuration="100.00" intervalHaltingDurationSum="1600.00" startedHalts="0.00" meanVehicleNumber="16.00" maxVehicleNumber="16" />
   <interval begin="25300.00" end="25400.00" id="e2_L237_0_3" sampledSeconds="1600.00" nVehEntered="0" nVehLeft="0" nVehSeen="16" meanSpeed="0.00" meanTimeLoss="100.00" meanOccupancy="195.86" maxOccupancy="195.86" meanMaxJamLengthInVehicles="16.00" meanMaxJamLengthInMeters="36.17" maxJamLengthInVehicles="16" maxJamLengthInMeters="36.17" jamLengthInVehiclesSum="1600" jamLengthInMetersSum="3616.95" meanHaltingDuration="1507.81" maxHaltingDuration="2406.00" haltingDurationSum="24125.00" meanIntervalHaltingDuration="100.00" maxIntervalHaltingDuration="100.00" intervalHaltingDurationSum="1600.00" startedHalts="0.00" meanVehicleNumber="16.00" maxVehicleNumber="16" />
   <interval begin="25400.00" end="25500.00" id="e2_L237_0_3" sampledSeconds="1600.00" nVehEntered="0" nVehLeft="0" nVehSeen="16" meanSpeed="0.00" meanTimeLoss="100.00" meanOccupancy="195.86" maxOccupancy="195.86" meanMaxJamLengthInVehicles="16.00" meanMaxJamLengthInMeters="36.17" maxJamLengthInVehicles="16" maxJamLengthInMeters="36.17" jamLengthInVehiclesSum="1600" jamLengthInMetersSum="3616.97" meanHaltingDuration="1607.81" maxHaltingDuration="2506.00" haltingDurationSum="25725.00" meanIntervalHaltingDuration="100.00" maxIntervalHaltingDuration="100.00" intervalHaltingDurationSum="1600.00" startedHalts="0.00" meanVehicleNumber="16.00" maxVehicleNumber="16" />
   <interval begin="25500.00" end="25600.00" id="e2_L237_0_3" sampledSeconds="1565.57" nVehEntered="8" nVehLeft="9" nVehSeen="24" meanSpeed="0.08" meanTimeLoss="64.82" meanOccupancy="193.80" maxOccupancy="196.02" meanMaxJamLengthInVehicles="14.65" meanMaxJamLengthInMeters="33.37" maxJamLengthInVehicles="16" maxJamLengthInMeters="36.24" jamLengthInVehiclesSum="1529" jamLengthInMetersSum="3486.68" meanHaltingDuration="1285.55" maxHaltingDuration="2606.00" haltingDurationSum="25711.00" meanIntervalHaltingDuration="72.65" maxIntervalHaltingDuration="100.00" intervalHaltingDurationSum="1453.00" startedHalts="8.00" meanVehicleNumber="15.70" maxVehicleNumber="17" />
   <interval begin="25600.00" end="25700.00" id="e2_L237_0_3" sampledSeconds="1158.10" nVehEntered="41" nVehLeft="42" nVehSeen="56" meanSpeed="0.51" meanTimeLoss="19.84" meanOccupancy="152.38" maxOccupancy="197.17" meanMaxJamLengthInVehicles="6.92" meanMaxJamLengthInMeters="19.17" maxJamLengthInVehicles="15" maxJamLengthInMeters="36.02" jamLengthInVehiclesSum="978" jamLengthInMetersSum="2741.99" meanHaltingDuration="382.18" maxHaltingDuration="2706.00" haltingDurationSum="14523.00" meanIntervalHaltingDuration="22.08" maxIntervalHaltingDuration="100.00" intervalHaltingDurationSum="839.00" startedHalts="40.00" meanVehicleNumber="11.81" maxVehicleNumber="16" />
   <interval begin="25700.00" end="25800.00" id="e2_L237_0_3" sampledSeconds="1273.87" nVehEntered="32" nVehLeft="39" nVehSeen="46" meanSpeed="0.41" meanTimeLoss="26.78" meanOccupancy="166.79" maxOccupancy="192.71" meanMaxJamLengthInVehicles="9.31" meanMaxJamLengthInMeters="24.74" maxJamLengthInVehicles="15" maxJamLengthInMeters="36.52" jamLengthInVehiclesSum="1134" jamLengthInMetersSum="3111.67" meanHaltingDuration="413.41" maxHaltingDuration="2806.00" haltingDurationSum="11989.00" meanIntervalHaltingDuration="34.34" maxIntervalHaltingDuration="100.00" intervalHaltingDurationSum="996.00" startedHalts="26.00" meanVehicleNumber="12.96" maxVehicleNumber="16" />
   <interval begin="25800.00" end="25900.00" id="e2_L237_0_3" sampledSeconds="770.53" nVehEntered="23" nVehLeft="21" nVehSeen="30" meanSpeed="0.46" meanTimeLoss="24.74" meanOccupancy="88.48" maxOccupancy="100.81" meanMaxJamLengthInVehicles="6.31" meanMaxJamLengthInMeters="24.70" maxJamLengthInVehicles="9" maxJamLengthInMeters="35.27" jamLengthInVehiclesSum="681" jamLengthInMetersSum="2618.11" meanHaltingDuration="655.31" maxHaltingDuration="2906.00" haltingDurationSum="10485.00" meanIntervalHaltingDuration="39.88" maxIntervalHaltingDuration="100.00" intervalHaltingDurationSum="638.00" startedHalts="17.00" meanVehicleNumber="7.81" maxVehicleNumber="10" />