<?xml version="1.0" encoding="UTF-8"?>

<!-- generated on Sun Feb 17 15:57:00 2019 by 
<configuration xmlns:xsi="http://www.w3.org/2001/XMLSchema-instance" xsi:noNamespaceSchemaLocation="http://sumo.dlr.de/xsd/Configuration.xsd">

    <input>
        <net-file value="/home/sda/Documents/sumo-sathorn-ray/models/sathorn-morning/sathorn_w_fixed_20160404.net.xml"/>
        <route-files value="/home/sda/Documents/sumo-sathorn-ray/models/sathorn-morning/Great-route/sathorn_w_20160422edit2.rou.xml"/>
        <additional-files value="/home/sda/Documents/sumo-sathorn-ray/models/sathorn-morning/sathon_wide_tls_20160418_edited.add.xml,/home/sda/Documents/sumo-sathorn-ray/detectors/sathorn_w_detectors.add.xml"/>
    </input>

    <time>
        <begin value="21600"/>
        <end value="32400"/>
        <step-length value="1"/>
    </time>

    <processing>
        <no-internal-links value="true"/>
        <ignore-junction-blocker value="-1"/>
        <time-to-teleport value="-1"/>
        <eager-insert value="true"/>
        <time-to-impatience value="300"/>
    </processing>

    <report>
        <no-warnings value="true"/>
    </report>

    <random_number>
        <random value="false"/>
        <seed value="20"/>
    </random_number>

    <gui_only>
        <gui-settings-file value="/home/sda/Documents/sumo-sathorn-ray/gui-settings/gui-settings-file-surasak.xml"/>
        <quit-on-end value="true"/>
        <start value="true"/>
        <tracker-interval value="1"/>
    </gui_only>

</configuration>
-->

<detector xmlns:xsi="http://www.w3.org/2001/XMLSchema-instance" xsi:noNamespaceSchemaLocation="http://sumo.dlr.de/xsd/det_e2_file.xsd">
   <interval begin="21600.00" end="21700.00" id="e2_L197#1_2_1" sampledSeconds="0.00" nVehEntered="0" nVehLeft="0" nVehSeen="0" meanSpeed="-1.00" meanTimeLoss="-1.00" meanOccupancy="0.00" maxOccupancy="0.00" meanMaxJamLengthInVehicles="0.00" meanMaxJamLengthInMeters="0.00" maxJamLengthInVehicles="0" maxJamLengthInMeters="0.00" jamLengthInVehiclesSum="0" jamLengthInMetersSum="0.00" meanHaltingDuration="0.00" maxHaltingDuration="0.00" haltingDurationSum="0.00" meanIntervalHaltingDuration="0.00" maxIntervalHaltingDuration="0.00" intervalHaltingDurationSum="0.00" startedHalts="0.00" meanVehicleNumber="0.00" maxVehicleNumber="0" />
   <interval begin="21700.00" end="21800.00" id="e2_L197#1_2_1" sampledSeconds="0.00" nVehEntered="0" nVehLeft="0" nVehSeen="0" meanSpeed="-1.00" meanTimeLoss="-1.00" meanOccupancy="0.00" maxOccupancy="0.00" meanMaxJamLengthInVehicles="0.00" meanMaxJamLengthInMeters="0.00" maxJamLengthInVehicles="0" maxJamLengthInMeters="0.00" jamLengthInVehiclesSum="0" jamLengthInMetersSum="0.00" meanHaltingDuration="0.00" maxHaltingDuration="0.00" haltingDurationSum="0.00" meanIntervalHaltingDuration="0.00" maxIntervalHaltingDuration="0.00" intervalHaltingDurationSum="0.00" startedHalts="0.00" meanVehicleNumber="0.00" maxVehicleNumber="0" />
   <interval begin="21800.00" end="21900.00" id="e2_L197#1_2_1" sampledSeconds="13.19" nVehEntered="1" nVehLeft="0" nVehSeen="1" meanSpeed="11.89" meanTimeLoss="0.65" meanOccupancy="0.29" maxOccupancy="2.11" meanMaxJamLengthInVehicles="0.00" meanMaxJamLengthInMeters="0.00" maxJamLengthInVehicles="0" maxJamLengthInMeters="0.00" jamLengthInVehiclesSum="0" jamLengthInMetersSum="0.00" meanHaltingDuration="0.00" maxHaltingDuration="0.00" haltingDurationSum="0.00" meanIntervalHaltingDuration="0.00" maxIntervalHaltingDuration="0.00" intervalHaltingDurationSum="0.00" startedHalts="0.00" meanVehicleNumber="0.14" maxVehicleNumber="1" />
   <interval begin="21900.00" end="22000.00" id="e2_L197#1_2_1" sampledSeconds="20.94" nVehEntered="2" nVehLeft="3" nVehSeen="3" meanSpeed="11.60" meanTimeLoss="0.50" meanOccupancy="0.43" maxOccupancy="4.22" meanMaxJamLengthInVehicles="0.00" meanMaxJamLengthInMeters="0.00" maxJamLengthInVehicles="0" maxJamLengthInMeters="0.00" jamLengthInVehiclesSum="0" jamLengthInMetersSum="0.00" meanHaltingDuration="0.00" maxHaltingDuration="0.00" haltingDurationSum="0.00" meanIntervalHaltingDuration="0.00" maxIntervalHaltingDuration="0.00" intervalHaltingDurationSum="0.00" startedHalts="0.00" meanVehicleNumber="0.22" maxVehicleNumber="2" />
   <interval begin="22000.00" end="22100.00" id="e2_L197#1_2_1" sampledSeconds="114.02" nVehEntered="16" nVehLeft="9" nVehSeen="16" meanSpeed="2.45" meanTimeLoss="5.72" meanOccupancy="2.32" maxOccupancy="14.79" meanMaxJamLengthInVehicles="0.72" meanMaxJamLengthInMeters="3.92" maxJamLengthInVehicles="4" maxJamLengthInMeters="25.71" jamLengthInVehiclesSum="72" jamLengthInMetersSum="392.18" meanHaltingDuration="19.00" maxHaltingDuration="48.00" haltingDurationSum="76.00" meanIntervalHaltingDuration="19.00" maxIntervalHaltingDuration="48.00" intervalHaltingDurationSum="76.00" startedHalts="5.00" meanVehicleNumber="1.17" maxVehicleNumber="7" />
   <interval begin="22100.00" end="22200.00" id="e2_L197#1_2_1" sampledSeconds="1593.71" nVehEntered="31" nVehLeft="17" nVehSeen="38" meanSpeed="1.59" meanTimeLoss="36.60" meanOccupancy="33.70" maxOccupancy="44.36" meanMaxJamLengthInVehicles="13.16" meanMaxJamLengthInMeters="89.66" maxJamLengthInVehicles="21" maxJamLengthInMeters="144.44" jamLengthInVehiclesSum="1316" jamLengthInMetersSum="8966.06" meanHaltingDuration="61.35" maxHaltingDuration="148.00" haltingDurationSum="1411.00" meanIntervalHaltingDuration="58.04" maxIntervalHaltingDuration="100.00" intervalHaltingDurationSum="1335.00" startedHalts="19.00" meanVehicleNumber="16.01" maxVehicleNumber="21" />
   <interval begin="22200.00" end="22300.00" id="e2_L197#1_2_1" sampledSeconds="2363.52" nVehEntered="20" nVehLeft="12" nVehSeen="41" meanSpeed="0.29" meanTimeLoss="56.31" meanOccupancy="49.82" maxOccupancy="61.26" meanMaxJamLengthInVehicles="19.43" meanMaxJamLengthInMeters="134.56" maxJamLengthInVehicles="23" maxJamLengthInMeters="159.08" jamLengthInVehiclesSum="2182" jamLengthInMetersSum="15098.85" meanHaltingDuration="49.13" maxHaltingDuration="206.00" haltingDurationSum="3636.00" meanIntervalHaltingDuration="30.09" maxIntervalHaltingDuration="89.00" intervalHaltingDurationSum="2227.00" startedHalts="54.00" meanVehicleNumber="23.69" maxVehicleNumber="29" />
   <interval begin="22300.00" end="22400.00" id="e2_L197#1_2_1" sampledSeconds="3050.05" nVehEntered="5" nVehLeft="3" nVehSeen="34" meanSpeed="0.10" meanTimeLoss="88.96" meanOccupancy="64.09" maxOccupancy="65.48" meanMaxJamLengthInVehicles="29.10" meanMaxJamLengthInMeters="203.88" maxJamLengthInVehicles="31" maxJamLengthInMeters="220.55" jamLengthInVehiclesSum="3002" jamLengthInMetersSum="21014.36" meanHaltingDuration="68.00" maxHaltingDuration="134.00" haltingDurationSum="3468.00" meanIntervalHaltingDuration="59.16" maxIntervalHaltingDuration="100.00" intervalHaltingDurationSum="3017.00" startedHalts="26.00" meanVehicleNumber="30.53" maxVehicleNumber="31" />
   <interval begin="22400.00" end="22500.00" id="e2_L197#1_2_1" sampledSeconds="3100.00" nVehEntered="0" nVehLeft="0" nVehSeen="31" meanSpeed="0.00" meanTimeLoss="100.00" meanOccupancy="65.48" maxOccupancy="65.48" meanMaxJamLengthInVehicles="31.00" meanMaxJamLengthInMeters="214.35" maxJamLengthInVehicles="31" maxJamLengthInMeters="214.37" jamLengthInVehiclesSum="3100" jamLengthInMetersSum="21435.19" meanHaltingDuration="190.71" maxHaltingDuration="234.00" haltingDurationSum="5912.00" meanIntervalHaltingDuration="100.00" maxIntervalHaltingDuration="100.00" intervalHaltingDurationSum="3100.00" startedHalts="0.00" meanVehicleNumber="31.00" maxVehicleNumber="31" />
   <interval begin="22500.00" end="22600.00" id="e2_L197#1_2_1" sampledSeconds="3100.00" nVehEntered="0" nVehLeft="0" nVehSeen="31" meanSpeed="0.00" meanTimeLoss="100.00" meanOccupancy="65.48" maxOccupancy="65.48" meanMaxJamLengthInVehicles="31.00" meanMaxJamLengthInMeters="214.35" maxJamLengthInVehicles="31" maxJamLengthInMeters="214.35" jamLengthInVehiclesSum="3100" jamLengthInMetersSum="21435.11" meanHaltingDuration="290.71" maxHaltingDuration="334.00" haltingDurationSum="9012.00" meanIntervalHaltingDuration="100.00" maxIntervalHaltingDuration="100.00" intervalHaltingDurationSum="3100.00" startedHalts="0.00" meanVehicleNumber="31.00" maxVehicleNumber="31" />
   <interval begin="22600.00" end="22700.00" id="e2_L197#1_2_1" sampledSeconds="3100.00" nVehEntered="0" nVehLeft="0" nVehSeen="31" meanSpeed="0.00" meanTimeLoss="100.00" meanOccupancy="65.48" maxOccupancy="65.48" meanMaxJamLengthInVehicles="31.00" meanMaxJamLengthInMeters="214.35" maxJamLengthInVehicles="31" maxJamLengthInMeters="214.35" jamLengthInVehiclesSum="3100" jamLengthInMetersSum="21435.11" meanHaltingDuration="390.71" maxHaltingDuration="434.00" haltingDurationSum="12112.00" meanIntervalHaltingDuration="100.00" maxIntervalHaltingDuration="100.00" intervalHaltingDurationSum="3100.00" startedHalts="0.00" meanVehicleNumber="31.00" maxVehicleNumber="31" />
   <interval begin="22700.00" end="22800.00" id="e2_L197#1_2_1" sampledSeconds="3100.00" nVehEntered="0" nVehLeft="0" nVehSeen="31" meanSpeed="0.00" meanTimeLoss="100.00" meanOccupancy="65.48" maxOccupancy="65.48" meanMaxJamLengthInVehicles="31.00" meanMaxJamLengthInMeters="214.35" maxJamLengthInVehicles="31" maxJamLengthInMeters="214.35" jamLengthInVehiclesSum="3100" jamLengthInMetersSum="21435.11" meanHaltingDuration="490.71" maxHaltingDuration="534.00" haltingDurationSum="15212.00" meanIntervalHaltingDuration="100.00" maxIntervalHaltingDuration="100.00" intervalHaltingDurationSum="3100.00" startedHalts="0.00" meanVehicleNumber="31.00" maxVehicleNumber="31" />
   <interval begin="22800.00" end="22900.00" id="e2_L197#1_2_1" sampledSeconds="3100.00" nVehEntered="0" nVehLeft="0" nVehSeen="31" meanSpeed="0.00" meanTimeLoss="100.00" meanOccupancy="65.48" maxOccupancy="65.48" meanMaxJamLengthInVehicles="31.00" meanMaxJamLengthInMeters="214.35" maxJamLengthInVehicles="31" maxJamLengthInMeters="214.35" jamLengthInVehiclesSum="3100" jamLengthInMetersSum="21435.11" meanHaltingDuration="590.71" maxHaltingDuration="634.00" haltingDurationSum="18312.00" meanIntervalHaltingDuration="100.00" maxIntervalHaltingDuration="100.00" intervalHaltingDurationSum="3100.00" startedHalts="0.00" meanVehicleNumber="31.00" maxVehicleNumber="31" />
   <interval begin="22900.00" end="23000.00" id="e2_L197#1_2_1" sampledSeconds="3100.00" nVehEntered="0" nVehLeft="0" nVehSeen="31" meanSpeed="0.00" meanTimeLoss="100.00" meanOccupancy="65.48" maxOccupancy="65.48" meanMaxJamLengthInVehicles="31.00" meanMaxJamLengthInMeters="214.35" maxJamLengthInVehicles="31" maxJamLengthInMeters="214.35" jamLengthInVehiclesSum="3100" jamLengthInMetersSum="21435.11" meanHaltingDuration="690.71" maxHaltingDuration="734.00" haltingDurationSum="21412.00" meanIntervalHaltingDuration="100.00" maxIntervalHaltingDuration="100.00" intervalHaltingDurationSum="3100.00" startedHalts="0.00" meanVehicleNumber="31.00" maxVehicleNumber="31" />
   <interval begin="23000.00" end="23100.00" id="e2_L197#1_2_1" sampledSeconds="3100.00" nVehEntered="0" nVehLeft="0" nVehSeen="31" meanSpeed="0.00" meanTimeLoss="100.00" meanOccupancy="65.48" maxOccupancy="65.48" meanMaxJamLengthInVehicles="31.00" meanMaxJamLengthInMeters="214.35" maxJamLengthInVehicles="31" maxJamLengthInMeters="214.35" jamLengthInVehiclesSum="3100" jamLengthInMetersSum="21435.11" meanHaltingDuration="790.71" maxHaltingDuration="834.00" haltingDurationSum="24512.00" meanIntervalHaltingDuration="100.00" maxIntervalHaltingDuration="100.00" intervalHaltingDurationSum="3100.00" startedHalts="0.00" meanVehicleNumber="31.00" maxVehicleNumber="31" />
   <interval begin="23100.00" end="23200.00" id="e2_L197#1_2_1" sampledSeconds="3100.00" nVehEntered="0" nVehLeft="0" nVehSeen="31" meanSpeed="0.00" meanTimeLoss="100.00" meanOccupancy="65.48" maxOccupancy="65.48" meanMaxJamLengthInVehicles="31.00" meanMaxJamLengthInMeters="214.35" maxJamLengthInVehicles="31" maxJamLengthInMeters="214.35" jamLengthInVehiclesSum="3100" jamLengthInMetersSum="21435.11" meanHaltingDuration="890.71" maxHaltingDuration="934.00" haltingDurationSum="27612.00" meanIntervalHaltingDuration="100.00" maxIntervalHaltingDuration="100.00" intervalHaltingDurationSum="3100.00" startedHalts="0.00" meanVehicleNumber="31.00" maxVehicleNumber="31" />
   <interval begin="23200.00" end="23300.00" id="e2_L197#1_2_1" sampledSeconds="3100.00" nVehEntered="0" nVehLeft="0" nVehSeen="31" meanSpeed="0.00" meanTimeLoss="100.00" meanOccupancy="65.48" maxOccupancy="65.48" meanMaxJamLengthInVehicles="31.00" meanMaxJamLengthInMeters="214.35" maxJamLengthInVehicles="31" maxJamLengthInMeters="214.35" jamLengthInVehiclesSum="3100" jamLengthInMetersSum="21435.11" meanHaltingDuration="990.71" maxHaltingDuration="1034.00" haltingDurationSum="30712.00" meanIntervalHaltingDuration="100.00" maxIntervalHaltingDuration="100.00" intervalHaltingDurationSum="3100.00" startedHalts="0.00" meanVehicleNumber="31.00" maxVehicleNumber="31" />
   <interval begin="23300.00" end="23400.00" id="e2_L197#1_2_1" sampledSeconds="3100.00" nVehEntered="0" nVehLeft="0" nVehSeen="31" meanSpeed="0.00" meanTimeLoss="100.00" meanOccupancy="65.48" maxOccupancy="65.48" meanMaxJamLengthInVehicles="31.00" meanMaxJamLengthInMeters="214.35" maxJamLengthInVehicles="31" maxJamLengthInMeters="214.35" jamLengthInVehiclesSum="3100" jamLengthInMetersSum="21435.11" meanHaltingDuration="1090.71" maxHaltingDuration="1134.00" haltingDurationSum="33812.00" meanIntervalHaltingDuration="100.00" maxIntervalHaltingDuration="100.00" intervalHaltingDurationSum="3100.00" startedHalts="0.00" meanVehicleNumber="31.00" maxVehicleNumber="31" />
   <interval begin="23400.00" end="23500.00" id="e2_L197#1_2_1" sampledSeconds="3061.57" nVehEntered="2" nVehLeft="2" nVehSeen="33" meanSpeed="0.08" meanTimeLoss="92.21" meanOccupancy="64.54" maxOccupancy="65.48" meanMaxJamLengthInVehicles="30.33" meanMaxJamLengthInMeters="212.65" maxJamLengthInVehicles="31" maxJamLengthInMeters="217.13" jamLengthInVehiclesSum="3047" jamLengthInMetersSum="21353.25" meanHaltingDuration="1023.86" maxHaltingDuration="1222.00" haltingDurationSum="36859.00" meanIntervalHaltingDuration="84.64" maxIntervalHaltingDuration="100.00" intervalHaltingDurationSum="3047.00" startedHalts="7.00" meanVehicleNumber="30.63" maxVehicleNumber="31" />
   <interval begin="23500.00" end="23600.00" id="e2_L197#1_2_1" sampledSeconds="3182.02" nVehEntered="2" nVehLeft="1" nVehSeen="33" meanSpeed="0.00" meanTimeLoss="96.40" meanOccupancy="65.63" maxOccupancy="65.67" meanMaxJamLengthInVehicles="31.81" meanMaxJamLengthInMeters="216.72" maxJamLengthInVehicles="32" maxJamLengthInMeters="217.13" jamLengthInVehiclesSum="3181" jamLengthInMetersSum="21671.90" meanHaltingDuration="1070.88" maxHaltingDuration="1322.00" haltingDurationSum="34268.00" meanIntervalHaltingDuration="99.44" maxIntervalHaltingDuration="100.00" intervalHaltingDurationSum="3182.00" startedHalts="2.00" meanVehicleNumber="31.83" maxVehicleNumber="32" />
   <interval begin="23600.00" end="23700.00" id="e2_L197#1_2_1" sampledSeconds="3200.00" nVehEntered="0" nVehLeft="0" nVehSeen="32" meanSpeed="0.00" meanTimeLoss="100.00" meanOccupancy="65.67" maxOccupancy="65.67" meanMaxJamLengthInVehicles="32.00" meanMaxJamLengthInMeters="217.13" maxJamLengthInVehicles="32" maxJamLengthInMeters="217.13" jamLengthInVehiclesSum="3200" jamLengthInMetersSum="21712.65" meanHaltingDuration="1170.88" maxHaltingDuration="1422.00" haltingDurationSum="37468.00" meanIntervalHaltingDuration="100.00" maxIntervalHaltingDuration="100.00" intervalHaltingDurationSum="3200.00" startedHalts="0.00" meanVehicleNumber="32.00" maxVehicleNumber="32" />
   <interval begin="23700.00" end="23800.00" id="e2_L197#1_2_1" sampledSeconds="3200.00" nVehEntered="0" nVehLeft="0" nVehSeen="32" meanSpeed="0.00" meanTimeLoss="100.00" meanOccupancy="65.67" maxOccupancy="65.67" meanMaxJamLengthInVehicles="32.00" meanMaxJamLengthInMeters="217.13" maxJamLengthInVehicles="32" maxJamLengthInMeters="217.13" jamLengthInVehiclesSum="3200" jamLengthInMetersSum="21712.65" meanHaltingDuration="1270.88" maxHaltingDuration="1522.00" haltingDurationSum="40668.00" meanIntervalHaltingDuration="100.00" maxIntervalHaltingDuration="100.00" intervalHaltingDurationSum="3200.00" startedHalts="0.00" meanVehicleNumber="32.00" maxVehicleNumber="32" />
   <interval begin="23800.00" end="23900.00" id="e2_L197#1_2_1" sampledSeconds="3144.08" nVehEntered="1" nVehLeft="2" nVehSeen="33" meanSpeed="0.08" meanTimeLoss="94.69" meanOccupancy="64.69" maxOccupancy="65.67" meanMaxJamLengthInVehicles="31.03" meanMaxJamLengthInMeters="214.19" maxJamLengthInVehicles="32" maxJamLengthInMeters="220.14" jamLengthInVehiclesSum="3132" jamLengthInMetersSum="21609.37" meanHaltingDuration="1206.33" maxHaltingDuration="1622.00" haltingDurationSum="43428.00" meanIntervalHaltingDuration="84.50" maxIntervalHaltingDuration="100.00" intervalHaltingDurationSum="3042.00" startedHalts="6.00" meanVehicleNumber="31.45" maxVehicleNumber="32" />
   <interval begin="23900.00" end="24000.00" id="e2_L197#1_2_1" sampledSeconds="3170.11" nVehEntered="1" nVehLeft="2" nVehSeen="32" meanSpeed="0.05" meanTimeLoss="98.67" meanOccupancy="65.10" maxOccupancy="65.86" meanMaxJamLengthInVehicles="30.28" meanMaxJamLengthInMeters="205.91" maxJamLengthInVehicles="32" maxJamLengthInMeters="217.81" jamLengthInVehiclesSum="3103" jamLengthInMetersSum="21066.31" meanHaltingDuration="729.34" maxHaltingDuration="1712.00" haltingDurationSum="42302.00" meanIntervalHaltingDuration="53.83" maxIntervalHaltingDuration="100.00" intervalHaltingDurationSum="3122.00" startedHalts="28.00" meanVehicleNumber="31.72" maxVehicleNumber="32" />
   <interval begin="24000.00" end="24100.00" id="e2_L197#1_2_1" sampledSeconds="3070.52" nVehEntered="1" nVehLeft="0" nVehSeen="31" meanSpeed="0.08" meanTimeLoss="98.38" meanOccupancy="64.41" maxOccupancy="65.48" meanMaxJamLengthInVehicles="27.57" meanMaxJamLengthInMeters="191.22" maxJamLengthInVehicles="31" maxJamLengthInMeters="216.55" jamLengthInVehiclesSum="2992" jamLengthInMetersSum="20676.42" meanHaltingDuration="427.34" maxHaltingDuration="1730.00" haltingDurationSum="29059.00" meanIntervalHaltingDuration="44.59" maxIntervalHaltingDuration="100.00" intervalHaltingDurationSum="3032.00" startedHalts="40.00" meanVehicleNumber="30.71" maxVehicleNumber="31" />
   <interval begin="24100.00" end="24200.00" id="e2_L197#1_2_1" sampledSeconds="3024.75" nVehEntered="3" nVehLeft="3" nVehSeen="34" meanSpeed="0.15" meanTimeLoss="87.91" meanOccupancy="63.59" maxOccupancy="65.48" meanMaxJamLengthInVehicles="26.26" meanMaxJamLengthInMeters="183.42" maxJamLengthInVehicles="31" maxJamLengthInMeters="216.55" jamLengthInVehiclesSum="2891" jamLengthInMetersSum="20171.19" meanHaltingDuration="92.16" maxHaltingDuration="1799.00" haltingDurationSum="7926.00" meanIntervalHaltingDuration="34.15" maxIntervalHaltingDuration="72.00" intervalHaltingDurationSum="2937.00" startedHalts="57.00" meanVehicleNumber="30.28" maxVehicleNumber="31" />
   <interval begin="24200.00" end="24300.00" id="e2_L197#1_2_1" sampledSeconds="3100.00" nVehEntered="0" nVehLeft="0" nVehSeen="31" meanSpeed="0.00" meanTimeLoss="100.00" meanOccupancy="65.48" maxOccupancy="65.48" meanMaxJamLengthInVehicles="31.00" meanMaxJamLengthInMeters="214.35" maxJamLengthInVehicles="31" maxJamLengthInMeters="214.42" jamLengthInVehiclesSum="3100" jamLengthInMetersSum="21435.26" meanHaltingDuration="142.26" maxHaltingDuration="164.00" haltingDurationSum="4410.00" meanIntervalHaltingDuration="100.00" maxIntervalHaltingDuration="100.00" intervalHaltingDurationSum="3100.00" startedHalts="0.00" meanVehicleNumber="31.00" maxVehicleNumber="31" />
   <interval begin="24300.00" end="24400.00" id="e2_L197#1_2_1" sampledSeconds="3100.00" nVehEntered="0" nVehLeft="0" nVehSeen="31" meanSpeed="0.00" meanTimeLoss="100.00" meanOccupancy="65.48" maxOccupancy="65.48" meanMaxJamLengthInVehicles="31.00" meanMaxJamLengthInMeters="214.35" maxJamLengthInVehicles="31" maxJamLengthInMeters="214.35" jamLengthInVehiclesSum="3100" jamLengthInMetersSum="21435.08" meanHaltingDuration="242.26" maxHaltingDuration="264.00" haltingDurationSum="7510.00" meanIntervalHaltingDuration="100.00" maxIntervalHaltingDuration="100.00" intervalHaltingDurationSum="3100.00" startedHalts="0.00" meanVehicleNumber="31.00" maxVehicleNumber="31" />
   <interval begin="24400.00" end="24500.00" id="e2_L197#1_2_1" sampledSeconds="3100.00" nVehEntered="0" nVehLeft="0" nVehSeen="31" meanSpeed="0.00" meanTimeLoss="100.00" meanOccupancy="65.48" maxOccupancy="65.48" meanMaxJamLengthInVehicles="31.00" meanMaxJamLengthInMeters="214.35" maxJamLengthInVehicles="31" maxJamLengthInMeters="214.35" jamLengthInVehiclesSum="3100" jamLengthInMetersSum="21435.08" meanHaltingDuration="342.26" maxHaltingDuration="364.00" haltingDurationSum="10610.00" meanIntervalHaltingDuration="100.00" maxIntervalHaltingDuration="100.00" intervalHaltingDurationSum="3100.00" startedHalts="0.00" meanVehicleNumber="31.00" maxVehicleNumber="31" />
   <interval begin="24500.00" end="24600.00" id="e2_L197#1_2_1" sampledSeconds="3100.00" nVehEntered="0" nVehLeft="0" nVehSeen="31" meanSpeed="0.00" meanTimeLoss="100.00" meanOccupancy="65.48" maxOccupancy="65.48" meanMaxJamLengthInVehicles="31.00" meanMaxJamLengthInMeters="214.35" maxJamLengthInVehicles="31" maxJamLengthInMeters="214.35" jamLengthInVehiclesSum="3100" jamLengthInMetersSum="21435.08" meanHaltingDuration="442.26" maxHaltingDuration="464.00" haltingDurationSum="13710.00" meanIntervalHaltingDuration="100.00" maxIntervalHaltingDuration="100.00" intervalHaltingDurationSum="3100.00" startedHalts="0.00" meanVehicleNumber="31.00" maxVehicleNumber="31" />
   <interval begin="24600.00" end="24700.00" id="e2_L197#1_2_1" sampledSeconds="3100.00" nVehEntered="0" nVehLeft="0" nVehSeen="31" meanSpeed="0.00" meanTimeLoss="100.00" meanOccupancy="65.48" maxOccupancy="65.48" meanMaxJamLengthInVehicles="31.00" meanMaxJamLengthInMeters="214.35" maxJamLengthInVehicles="31" maxJamLengthInMeters="214.35" jamLengthInVehiclesSum="3100" jamLengthInMetersSum="21435.08" meanHaltingDuration="542.26" maxHaltingDuration="564.00" haltingDurationSum="16810.00" meanIntervalHaltingDuration="100.00" maxIntervalHaltingDuration="100.00" intervalHaltingDurationSum="3100.00" startedHalts="0.00" meanVehicleNumber="31.00" maxVehicleNumber="31" />
   <interval begin="24700.00" end="24800.00" id="e2_L197#1_2_1" sampledSeconds="3100.00" nVehEntered="0" nVehLeft="0" nVehSeen="31" meanSpeed="0.01" meanTimeLoss="99.96" meanOccupancy="65.48" maxOccupancy="65.48" meanMaxJamLengthInVehicles="31.00" meanMaxJamLengthInMeters="214.61" maxJamLengthInVehicles="31" maxJamLengthInMeters="215.25" jamLengthInVehiclesSum="3100" jamLengthInMetersSum="21461.48" meanHaltingDuration="642.26" maxHaltingDuration="664.00" haltingDurationSum="19910.00" meanIntervalHaltingDuration="100.00" maxIntervalHaltingDuration="100.00" intervalHaltingDurationSum="3100.00" startedHalts="0.00" meanVehicleNumber="31.00" maxVehicleNumber="31" />
   <interval begin="24800.00" end="24900.00" id="e2_L197#1_2_1" sampledSeconds="3185.25" nVehEntered="1" nVehLeft="0" nVehSeen="32" meanSpeed="0.00" meanTimeLoss="99.51" meanOccupancy="65.75" maxOccupancy="65.82" meanMaxJamLengthInVehicles="31.85" meanMaxJamLengthInMeters="217.11" maxJamLengthInVehicles="32" maxJamLengthInMeters="217.45" jamLengthInVehiclesSum="3185" jamLengthInMetersSum="21711.00" meanHaltingDuration="721.75" maxHaltingDuration="764.00" haltingDurationSum="23096.00" meanIntervalHaltingDuration="99.56" maxIntervalHaltingDuration="100.00" intervalHaltingDurationSum="3186.00" startedHalts="1.00" meanVehicleNumber="31.86" maxVehicleNumber="32" />
   <interval begin="24900.00" end="25000.00" id="e2_L197#1_2_1" sampledSeconds="3200.00" nVehEntered="0" nVehLeft="0" nVehSeen="32" meanSpeed="0.00" meanTimeLoss="100.00" meanOccupancy="65.82" maxOccupancy="65.82" meanMaxJamLengthInVehicles="32.00" meanMaxJamLengthInMeters="217.45" maxJamLengthInVehicles="32" maxJamLengthInMeters="217.45" jamLengthInVehiclesSum="3200" jamLengthInMetersSum="21744.87" meanHaltingDuration="821.75" maxHaltingDuration="864.00" haltingDurationSum="26296.00" meanIntervalHaltingDuration="100.00" maxIntervalHaltingDuration="100.00" intervalHaltingDurationSum="3200.00" startedHalts="0.00" meanVehicleNumber="32.00" maxVehicleNumber="32" />
   <interval begin="25000.00" end="25100.00" id="e2_L197#1_2_1" sampledSeconds="3200.00" nVehEntered="0" nVehLeft="0" nVehSeen="32" meanSpeed="0.00" meanTimeLoss="100.00" meanOccupancy="65.82" maxOccupancy="65.82" meanMaxJamLengthInVehicles="32.00" meanMaxJamLengthInMeters="217.45" maxJamLengthInVehicles="32" maxJamLengthInMeters="217.45" jamLengthInVehiclesSum="3200" jamLengthInMetersSum="21744.87" meanHaltingDuration="921.75" maxHaltingDuration="964.00" haltingDurationSum="29496.00" meanIntervalHaltingDuration="100.00" maxIntervalHaltingDuration="100.00" intervalHaltingDurationSum="3200.00" startedHalts="0.00" meanVehicleNumber="32.00" maxVehicleNumber="32" />
   <interval begin="25100.00" end="25200.00" id="e2_L197#1_2_1" sampledSeconds="3200.00" nVehEntered="0" nVehLeft="0" nVehSeen="32" meanSpeed="0.00" meanTimeLoss="100.00" meanOccupancy="65.82" maxOccupancy="65.82" meanMaxJamLengthInVehicles="32.00" meanMaxJamLengthInMeters="217.45" maxJamLengthInVehicles="32" maxJamLengthInMeters="217.45" jamLengthInVehiclesSum="3200" jamLengthInMetersSum="21744.87" meanHaltingDuration="1021.75" maxHaltingDuration="1064.00" haltingDurationSum="32696.00" meanIntervalHaltingDuration="100.00" maxIntervalHaltingDuration="100.00" intervalHaltingDurationSum="3200.00" startedHalts="0.00" meanVehicleNumber="32.00" maxVehicleNumber="32" />
   <interval begin="25200.00" end="25300.00" id="e2_L197#1_2_1" sampledSeconds="3200.00" nVehEntered="0" nVehLeft="0" nVehSeen="32" meanSpeed="0.00" meanTimeLoss="100.00" meanOccupancy="65.82" maxOccupancy="65.82" meanMaxJamLengthInVehicles="32.00" meanMaxJamLengthInMeters="217.45" maxJamLengthInVehicles="32" maxJamLengthInMeters="217.45" jamLengthInVehiclesSum="3200" jamLengthInMetersSum="21744.87" meanHaltingDuration="1121.75" maxHaltingDuration="1164.00" haltingDurationSum="35896.00" meanIntervalHaltingDuration="100.00" maxIntervalHaltingDuration="100.00" intervalHaltingDurationSum="3200.00" startedHalts="0.00" meanVehicleNumber="32.00" maxVehicleNumber="32" />
   <interval begin="25300.00" end="25400.00" id="e2_L197#1_2_1" sampledSeconds="3200.00" nVehEntered="0" nVehLeft="0" nVehSeen="32" meanSpeed="0.00" meanTimeLoss="100.00" meanOccupancy="65.82" maxOccupancy="65.82" meanMaxJamLengthInVehicles="32.00" meanMaxJamLengthInMeters="217.45" maxJamLengthInVehicles="32" maxJamLengthInMeters="217.45" jamLengthInVehiclesSum="3200" jamLengthInMetersSum="21744.87" meanHaltingDuration="1221.75" maxHaltingDuration="1264.00" haltingDurationSum="39096.00" meanIntervalHaltingDuration="100.00" maxIntervalHaltingDuration="100.00" intervalHaltingDurationSum="3200.00" startedHalts="0.00" meanVehicleNumber="32.00" maxVehicleNumber="32" />
   <interval begin="25400.00" end="25500.00" id="e2_L197#1_2_1" sampledSeconds="3063.54" nVehEntered="1" nVehLeft="6" nVehSeen="33" meanSpeed="0.22" meanTimeLoss="91.23" meanOccupancy="62.91" maxOccupancy="65.82" meanMaxJamLengthInVehicles="25.97" meanMaxJamLengthInMeters="179.53" maxJamLengthInVehicles="32" maxJamLengthInMeters="221.37" jamLengthInVehiclesSum="2903" jamLengthInMetersSum="20101.00" meanHaltingDuration="565.62" maxHaltingDuration="1326.00" haltingDurationSum="40725.00" meanIntervalHaltingDuration="40.18" maxIntervalHaltingDuration="100.00" intervalHaltingDurationSum="2893.00" startedHalts="42.00" meanVehicleNumber="30.68" maxVehicleNumber="32" />
   <interval begin="25500.00" end="25600.00" id="e2_L197#1_2_1" sampledSeconds="2718.61" nVehEntered="14" nVehLeft="13" nVehSeen="41" meanSpeed="0.56" meanTimeLoss="63.34" meanOccupancy="56.87" maxOccupancy="63.37" meanMaxJamLengthInVehicles="19.65" meanMaxJamLengthInMeters="142.22" maxJamLengthInVehicles="29" maxJamLengthInMeters="208.63" jamLengthInVehiclesSum="2148" jamLengthInMetersSum="15327.42" meanHaltingDuration="36.77" maxHaltingDuration="1323.00" haltingDurationSum="5736.00" meanIntervalHaltingDuration="14.47" maxIntervalHaltingDuration="79.00" intervalHaltingDurationSum="2258.00" startedHalts="142.00" meanVehicleNumber="27.26" maxVehicleNumber="30" />
   <interval begin="25600.00" end="25700.00" id="e2_L197#1_2_1" sampledSeconds="2201.21" nVehEntered="20" nVehLeft="22" nVehSeen="48" meanSpeed="1.21" meanTimeLoss="41.42" meanOccupancy="45.84" maxOccupancy="59.15" meanMaxJamLengthInVehicles="12.08" meanMaxJamLengthInMeters="94.75" maxJamLengthInVehicles="28" maxJamLengthInMeters="209.27" jamLengthInVehiclesSum="1234" jamLengthInMetersSum="9615.34" meanHaltingDuration="19.15" maxHaltingDuration="88.00" haltingDurationSum="2547.00" meanIntervalHaltingDuration="9.86" maxIntervalHaltingDuration="44.00" intervalHaltingDurationSum="1312.00" startedHalts="109.00" meanVehicleNumber="22.19" maxVehicleNumber="28" />
   <interval begin="25700.00" end="25800.00" id="e2_L197#1_2_1" sampledSeconds="2688.26" nVehEntered="4" nVehLeft="3" nVehSeen="30" meanSpeed="0.03" meanTimeLoss="89.42" meanOccupancy="56.77" maxOccupancy="57.03" meanMaxJamLengthInVehicles="26.69" meanMaxJamLengthInMeters="212.35" maxJamLengthInVehicles="27" maxJamLengthInMeters="214.82" jamLengthInVehiclesSum="2669" jamLengthInMetersSum="21235.02" meanHaltingDuration="121.00" maxHaltingDuration="144.00" haltingDurationSum="3267.00" meanIntervalHaltingDuration="98.96" maxIntervalHaltingDuration="100.00" intervalHaltingDurationSum="2672.00" startedHalts="5.00" meanVehicleNumber="26.90" maxVehicleNumber="27" />