<?xml version="1.0" encoding="UTF-8"?>

<!-- generated on Sun Feb 17 15:57:00 2019 by 
<configuration xmlns:xsi="http://www.w3.org/2001/XMLSchema-instance" xsi:noNamespaceSchemaLocation="http://sumo.dlr.de/xsd/Configuration.xsd">

    <input>
        <net-file value="/home/sda/Documents/sumo-sathorn-ray/models/sathorn-morning/sathorn_w_fixed_20160404.net.xml"/>
        <route-files value="/home/sda/Documents/sumo-sathorn-ray/models/sathorn-morning/Great-route/sathorn_w_20160422edit2.rou.xml"/>
        <additional-files value="/home/sda/Documents/sumo-sathorn-ray/models/sathorn-morning/sathon_wide_tls_20160418_edited.add.xml,/home/sda/Documents/sumo-sathorn-ray/detectors/sathorn_w_detectors.add.xml"/>
    </input>

    <time>
        <begin value="21600"/>
        <end value="32400"/>
        <step-length value="1"/>
    </time>

    <processing>
        <no-internal-links value="true"/>
        <ignore-junction-blocker value="-1"/>
        <time-to-teleport value="-1"/>
        <eager-insert value="true"/>
        <time-to-impatience value="300"/>
    </processing>

    <report>
        <no-warnings value="true"/>
    </report>

    <random_number>
        <random value="false"/>
        <seed value="20"/>
    </random_number>

    <gui_only>
        <gui-settings-file value="/home/sda/Documents/sumo-sathorn-ray/gui-settings/gui-settings-file-surasak.xml"/>
        <quit-on-end value="true"/>
        <start value="true"/>
        <tracker-interval value="1"/>
    </gui_only>

</configuration>
-->

<detector xmlns:xsi="http://www.w3.org/2001/XMLSchema-instance" xsi:noNamespaceSchemaLocation="http://sumo.dlr.de/xsd/det_e2_file.xsd">
   <interval begin="21600.00" end="21700.00" id="e2_L40404_2_4" sampledSeconds="0.00" nVehEntered="0" nVehLeft="0" nVehSeen="0" meanSpeed="-1.00" meanTimeLoss="-1.00" meanOccupancy="0.00" maxOccupancy="0.00" meanMaxJamLengthInVehicles="0.00" meanMaxJamLengthInMeters="0.00" maxJamLengthInVehicles="0" maxJamLengthInMeters="0.00" jamLengthInVehiclesSum="0" jamLengthInMetersSum="0.00" meanHaltingDuration="0.00" maxHaltingDuration="0.00" haltingDurationSum="0.00" meanIntervalHaltingDuration="0.00" maxIntervalHaltingDuration="0.00" intervalHaltingDurationSum="0.00" startedHalts="0.00" meanVehicleNumber="0.00" maxVehicleNumber="0" />
   <interval begin="21700.00" end="21800.00" id="e2_L40404_2_4" sampledSeconds="0.00" nVehEntered="0" nVehLeft="0" nVehSeen="0" meanSpeed="-1.00" meanTimeLoss="-1.00" meanOccupancy="0.00" maxOccupancy="0.00" meanMaxJamLengthInVehicles="0.00" meanMaxJamLengthInMeters="0.00" maxJamLengthInVehicles="0" maxJamLengthInMeters="0.00" jamLengthInVehiclesSum="0" jamLengthInMetersSum="0.00" meanHaltingDuration="0.00" maxHaltingDuration="0.00" haltingDurationSum="0.00" meanIntervalHaltingDuration="0.00" maxIntervalHaltingDuration="0.00" intervalHaltingDurationSum="0.00" startedHalts="0.00" meanVehicleNumber="0.00" maxVehicleNumber="0" />
   <interval begin="21800.00" end="21900.00" id="e2_L40404_2_4" sampledSeconds="0.00" nVehEntered="0" nVehLeft="0" nVehSeen="0" meanSpeed="-1.00" meanTimeLoss="-1.00" meanOccupancy="0.00" maxOccupancy="0.00" meanMaxJamLengthInVehicles="0.00" meanMaxJamLengthInMeters="0.00" maxJamLengthInVehicles="0" maxJamLengthInMeters="0.00" jamLengthInVehiclesSum="0" jamLengthInMetersSum="0.00" meanHaltingDuration="0.00" maxHaltingDuration="0.00" haltingDurationSum="0.00" meanIntervalHaltingDuration="0.00" maxIntervalHaltingDuration="0.00" intervalHaltingDurationSum="0.00" startedHalts="0.00" meanVehicleNumber="0.00" maxVehicleNumber="0" />
   <interval begin="21900.00" end="22000.00" id="e2_L40404_2_4" sampledSeconds="0.00" nVehEntered="0" nVehLeft="0" nVehSeen="0" meanSpeed="-1.00" meanTimeLoss="-1.00" meanOccupancy="0.00" maxOccupancy="0.00" meanMaxJamLengthInVehicles="0.00" meanMaxJamLengthInMeters="0.00" maxJamLengthInVehicles="0" maxJamLengthInMeters="0.00" jamLengthInVehiclesSum="0" jamLengthInMetersSum="0.00" meanHaltingDuration="0.00" maxHaltingDuration="0.00" haltingDurationSum="0.00" meanIntervalHaltingDuration="0.00" maxIntervalHaltingDuration="0.00" intervalHaltingDurationSum="0.00" startedHalts="0.00" meanVehicleNumber="0.00" maxVehicleNumber="0" />
   <interval begin="22000.00" end="22100.00" id="e2_L40404_2_4" sampledSeconds="0.00" nVehEntered="0" nVehLeft="0" nVehSeen="0" meanSpeed="-1.00" meanTimeLoss="-1.00" meanOccupancy="0.00" maxOccupancy="0.00" meanMaxJamLengthInVehicles="0.00" meanMaxJamLengthInMeters="0.00" maxJamLengthInVehicles="0" maxJamLengthInMeters="0.00" jamLengthInVehiclesSum="0" jamLengthInMetersSum="0.00" meanHaltingDuration="0.00" maxHaltingDuration="0.00" haltingDurationSum="0.00" meanIntervalHaltingDuration="0.00" maxIntervalHaltingDuration="0.00" intervalHaltingDurationSum="0.00" startedHalts="0.00" meanVehicleNumber="0.00" maxVehicleNumber="0" />
   <interval begin="22100.00" end="22200.00" id="e2_L40404_2_4" sampledSeconds="0.00" nVehEntered="0" nVehLeft="0" nVehSeen="0" meanSpeed="-1.00" meanTimeLoss="-1.00" meanOccupancy="0.00" maxOccupancy="0.00" meanMaxJamLengthInVehicles="0.00" meanMaxJamLengthInMeters="0.00" maxJamLengthInVehicles="0" maxJamLengthInMeters="0.00" jamLengthInVehiclesSum="0" jamLengthInMetersSum="0.00" meanHaltingDuration="0.00" maxHaltingDuration="0.00" haltingDurationSum="0.00" meanIntervalHaltingDuration="0.00" maxIntervalHaltingDuration="0.00" intervalHaltingDurationSum="0.00" startedHalts="0.00" meanVehicleNumber="0.00" maxVehicleNumber="0" />
   <interval begin="22200.00" end="22300.00" id="e2_L40404_2_4" sampledSeconds="12.00" nVehEntered="2" nVehLeft="1" nVehSeen="2" meanSpeed="1.40" meanTimeLoss="5.33" meanOccupancy="1.99" maxOccupancy="33.92" meanMaxJamLengthInVehicles="0.07" meanMaxJamLengthInMeters="0.31" maxJamLengthInVehicles="1" maxJamLengthInMeters="4.62" jamLengthInVehiclesSum="7" jamLengthInMetersSum="31.18" meanHaltingDuration="8.00" maxHaltingDuration="8.00" haltingDurationSum="8.00" meanIntervalHaltingDuration="8.00" maxIntervalHaltingDuration="8.00" intervalHaltingDurationSum="8.00" startedHalts="1.00" meanVehicleNumber="0.12" maxVehicleNumber="2" />
   <interval begin="22300.00" end="22400.00" id="e2_L40404_2_4" sampledSeconds="12.81" nVehEntered="1" nVehLeft="1" nVehSeen="2" meanSpeed="1.98" meanTimeLoss="5.39" meanOccupancy="2.03" maxOccupancy="16.96" meanMaxJamLengthInVehicles="0.05" meanMaxJamLengthInMeters="0.23" maxJamLengthInVehicles="1" maxJamLengthInMeters="4.62" jamLengthInVehiclesSum="5" jamLengthInMetersSum="23.10" meanHaltingDuration="6.00" maxHaltingDuration="6.00" haltingDurationSum="6.00" meanIntervalHaltingDuration="6.00" maxIntervalHaltingDuration="6.00" intervalHaltingDurationSum="6.00" startedHalts="1.00" meanVehicleNumber="0.13" maxVehicleNumber="1" />
   <interval begin="22400.00" end="22500.00" id="e2_L40404_2_4" sampledSeconds="59.86" nVehEntered="0" nVehLeft="1" nVehSeen="1" meanSpeed="0.12" meanTimeLoss="59.30" meanOccupancy="9.92" maxOccupancy="16.96" meanMaxJamLengthInVehicles="0.58" meanMaxJamLengthInMeters="2.68" maxJamLengthInVehicles="1" maxJamLengthInMeters="4.62" jamLengthInVehiclesSum="58" jamLengthInMetersSum="267.96" meanHaltingDuration="64.00" maxHaltingDuration="64.00" haltingDurationSum="64.00" meanIntervalHaltingDuration="58.00" maxIntervalHaltingDuration="58.00" intervalHaltingDurationSum="58.00" startedHalts="0.00" meanVehicleNumber="0.60" maxVehicleNumber="1" />
   <interval begin="22500.00" end="22600.00" id="e2_L40404_2_4" sampledSeconds="80.00" nVehEntered="2" nVehLeft="1" nVehSeen="2" meanSpeed="0.15" meanTimeLoss="39.53" meanOccupancy="13.57" maxOccupancy="33.92" meanMaxJamLengthInVehicles="0.74" meanMaxJamLengthInMeters="3.42" maxJamLengthInVehicles="1" maxJamLengthInMeters="4.62" jamLengthInVehiclesSum="74" jamLengthInMetersSum="341.88" meanHaltingDuration="75.00" maxHaltingDuration="75.00" haltingDurationSum="75.00" meanIntervalHaltingDuration="75.00" maxIntervalHaltingDuration="75.00" intervalHaltingDurationSum="75.00" startedHalts="2.00" meanVehicleNumber="0.80" maxVehicleNumber="2" />
   <interval begin="22600.00" end="22700.00" id="e2_L40404_2_4" sampledSeconds="62.15" nVehEntered="5" nVehLeft="5" nVehSeen="6" meanSpeed="1.32" meanTimeLoss="9.27" meanOccupancy="10.00" maxOccupancy="33.92" meanMaxJamLengthInVehicles="0.44" meanMaxJamLengthInMeters="2.06" maxJamLengthInVehicles="2" maxJamLengthInMeters="11.87" jamLengthInVehiclesSum="44" jamLengthInMetersSum="205.91" meanHaltingDuration="59.50" maxHaltingDuration="94.00" haltingDurationSum="119.00" meanIntervalHaltingDuration="22.00" maxIntervalHaltingDuration="25.00" intervalHaltingDurationSum="44.00" startedHalts="3.00" meanVehicleNumber="0.64" maxVehicleNumber="2" />
   <interval begin="22700.00" end="22800.00" id="e2_L40404_2_4" sampledSeconds="86.00" nVehEntered="1" nVehLeft="2" nVehSeen="2" meanSpeed="0.18" meanTimeLoss="42.35" meanOccupancy="14.38" maxOccupancy="16.96" meanMaxJamLengthInVehicles="0.82" meanMaxJamLengthInMeters="3.79" maxJamLengthInVehicles="1" maxJamLengthInMeters="4.62" jamLengthInVehiclesSum="82" jamLengthInMetersSum="378.84" meanHaltingDuration="107.00" maxHaltingDuration="107.00" haltingDurationSum="107.00" meanIntervalHaltingDuration="82.00" maxIntervalHaltingDuration="82.00" intervalHaltingDurationSum="82.00" startedHalts="0.00" meanVehicleNumber="0.86" maxVehicleNumber="1" />
   <interval begin="22800.00" end="22900.00" id="e2_L40404_2_4" sampledSeconds="68.00" nVehEntered="2" nVehLeft="1" nVehSeen="2" meanSpeed="0.05" meanTimeLoss="33.88" meanOccupancy="11.53" maxOccupancy="33.92" meanMaxJamLengthInVehicles="0.66" meanMaxJamLengthInMeters="3.05" maxJamLengthInVehicles="1" maxJamLengthInMeters="4.62" jamLengthInVehiclesSum="66" jamLengthInMetersSum="