<?xml version="1.0" encoding="UTF-8"?>

<!-- generated on Sun Feb 17 15:57:00 2019 by 
<configuration xmlns:xsi="http://www.w3.org/2001/XMLSchema-instance" xsi:noNamespaceSchemaLocation="http://sumo.dlr.de/xsd/Configuration.xsd">

    <input>
        <net-file value="/home/sda/Documents/sumo-sathorn-ray/models/sathorn-morning/sathorn_w_fixed_20160404.net.xml"/>
        <route-files value="/home/sda/Documents/sumo-sathorn-ray/models/sathorn-morning/Great-route/sathorn_w_20160422edit2.rou.xml"/>
        <additional-files value="/home/sda/Documents/sumo-sathorn-ray/models/sathorn-morning/sathon_wide_tls_20160418_edited.add.xml,/home/sda/Documents/sumo-sathorn-ray/detectors/sathorn_w_detectors.add.xml"/>
    </input>

    <time>
        <begin value="21600"/>
        <end value="32400"/>
        <step-length value="1"/>
    </time>

    <processing>
        <no-internal-links value="true"/>
        <ignore-junction-blocker value="-1"/>
        <time-to-teleport value="-1"/>
        <eager-insert value="true"/>
        <time-to-impatience value="300"/>
    </processing>

    <report>
        <no-warnings value="true"/>
    </report>

    <random_number>
        <random value="false"/>
        <seed value="20"/>
    </random_number>

    <gui_only>
        <gui-settings-file value="/home/sda/Documents/sumo-sathorn-ray/gui-settings/gui-settings-file-surasak.xml"/>
        <quit-on-end value="true"/>
        <start value="true"/>
        <tracker-interval value="1"/>
    </gui_only>

</configuration>
-->

<detector xmlns:xsi="http://www.w3.org/2001/XMLSchema-instance" xsi:noNamespaceSchemaLocation="http://sumo.dlr.de/xsd/det_e2_file.xsd">
   <interval begin="21600.00" end="21700.00" id="e2_L10009_2_2" sampledSeconds="0.00" nVehEntered="0" nVehLeft="0" nVehSeen="0" meanSpeed="-1.00" meanTimeLoss="-1.00" meanOccupancy="0.00" maxOccupancy="0.00" meanMaxJamLengthInVehicles="0.00" meanMaxJamLengthInMeters="0.00" maxJamLengthInVehicles="0" maxJamLengthInMeters="0.00" jamLengthInVehiclesSum="0" jamLengthInMetersSum="0.00" meanHaltingDuration="0.00" maxHaltingDuration="0.00" haltingDurationSum="0.00" meanIntervalHaltingDuration="0.00" maxIntervalHaltingDuration="0.00" intervalHaltingDurationSum="0.00" startedHalts="0.00" meanVehicleNumber="0.00" maxVehicleNumber="0" />
   <interval begin="21700.00" end="21800.00" id="e2_L10009_2_2" sampledSeconds="0.00" nVehEntered="0" nVehLeft="0" nVehSeen="0" meanSpeed="-1.00" meanTimeLoss="-1.00" meanOccupancy="0.00" maxOccupancy="0.00" meanMaxJamLengthInVehicles="0.00" meanMaxJamLengthInMeters="0.00" maxJamLengthInVehicles="0" maxJamLengthInMeters="0.00" jamLengthInVehiclesSum="0" jamLengthInMetersSum="0.00" meanHaltingDuration="0.00" maxHaltingDuration="0.00" haltingDurationSum="0.00" meanIntervalHaltingDuration="0.00" maxIntervalHaltingDuration="0.00" intervalHaltingDurationSum="0.00" startedHalts="0.00" meanVehicleNumber="0.00" maxVehicleNumber="0" />
   <interval begin="21800.00" end="21900.00" id="e2_L10009_2_2" sampledSeconds="0.00" nVehEntered="0" nVehLeft="0" nVehSeen="0" meanSpeed="-1.00" meanTimeLoss="-1.00" meanOccupancy="0.00" maxOccupancy="0.00" meanMaxJamLengthInVehicles="0.00" meanMaxJamLengthInMeters="0.00" maxJamLengthInVehicles="0" maxJamLengthInMeters="0.00" jamLengthInVehiclesSum="0" jamLengthInMetersSum="0.00" meanHaltingDuration="0.00" maxHaltingDuration="0.00" haltingDurationSum="0.00" meanIntervalHaltingDuration="0.00" maxIntervalHaltingDuration="0.00" intervalHaltingDurationSum="0.00" startedHalts="0.00" meanVehicleNumber="0.00" maxVehicleNumber="0" />
   <interval begin="21900.00" end="22000.00" id="e2_L10009_2_2" sampledSeconds="31.00" nVehEntered="1" nVehLeft="1" nVehSeen="1" meanSpeed="11.21" meanTimeLoss="3.20" meanOccupancy="0.33" maxOccupancy="1.08" meanMaxJamLengthInVehicles="0.00" meanMaxJamLengthInMeters="0.00" maxJamLengthInVehicles="0" maxJamLengthInMeters="0.00" jamLengthInVehiclesSum="0" jamLengthInMetersSum="0.00" meanHaltingDuration="0.00" maxHaltingDuration="0.00" haltingDurationSum="0.00" meanIntervalHaltingDuration="0.00" maxIntervalHaltingDuration="0.00" intervalHaltingDurationSum="0.00" startedHalts="0.00" meanVehicleNumber="0.31" maxVehicleNumber="1" />
   <interval begin="22000.00" end="22100.00" id="e2_L10009_2_2" sampledSeconds="13.04" nVehEntered="3" nVehLeft="1" nVehSeen="3" meanSpeed="9.16" meanTimeLoss="1.16" meanOccupancy="0.13" maxOccupancy="2.16" meanMaxJamLengthInVehicles="0.00" meanMaxJamLengthInMeters="0.00" maxJamLengthInVehicles="0" maxJamLengthInMeters="0.00" jamLengthInVehiclesSum="0" jamLengthInMetersSum="0.00" meanHaltingDuration="0.00" maxHaltingDuration="0.00" haltingDurationSum="0.00" meanIntervalHaltingDuration="0.00" maxIntervalHaltingDuration="0.00" intervalHaltingDurationSum="0.00" startedHalts="0.00" meanVehicleNumber="0.14" maxVehicleNumber="2" />
   <interval begin="22100.00" end="22200.00" id="e2_L10009_2_2" sampledSeconds="541.26" nVehEntered="18" nVehLeft="5" nVehSeen="20" meanSpeed="1.83" meanTimeLoss="23.10" meanOccupancy="5.81" maxOccupancy="16.21" meanMaxJamLengthInVehicles="4.03" meanMaxJamLengthInMeters="26.75" maxJamLengthInVehicles="13" maxJamLengthInMeters="88.54" jamLengthInVehiclesSum="403" jamLengthInMetersSum="2675.27" meanHaltingDuration="29.79" maxHaltingDuration="62.00" haltingDurationSum="417.00" meanIntervalHaltingDuration="29.79" maxIntervalHaltingDuration="62.00" intervalHaltingDurationSum="417.00" startedHalts="14.00" meanVehicleNumber="5.42" maxVehicleNumber="15" />
   <interval begin="22200.00" end="22300.00" id="e2_L10009_2_2" sampledSeconds="2634.00" nVehEntered="21" nVehLeft="0" nVehSeen="36" meanSpeed="0.20" meanTimeLoss="71.99" meanOccupancy="28.46" maxOccupancy="38.89" meanMaxJamLengthInVehicles="25.28" meanMaxJamLengthInMeters="190.65" maxJamLengthInVehicles="35" maxJamLengthInMeters="277.95" jamLengthInVehiclesSum="2528" jamLengthInMetersSum="19064.90" meanHaltingDuration="84.74" maxHaltingDuration="162.00" haltingDurationSum="2966.00" meanIntervalHaltingDuration="72.83" maxIntervalHaltingDuration="100.00" intervalHaltingDurationSum="2549.00" startedHalts="21.00" meanVehicleNumber="26.34" maxVehicleNumber="36" />
   <interval begin="22300.00" end="22400.00" id="e2_L10009_2_2" sampledSeconds="3686.48" nVehEntered="5" nVehLeft="5" nVehSeen="41" meanSpeed="0.25" meanTimeLoss="88.11" meanOccupancy="39.80" maxOccupancy="42.13" meanMaxJamLengthInVehicles="30.78" meanMaxJamLengthInMeters="302.04" maxJamLengthInVehicles="39" maxJamLengthInMeters="390.76" jamLengthInVehiclesSum="3363" jamLengthInMetersSum="32624.90" meanHaltingDuration="84.33" maxHaltingDuration="208.00" haltingDurationSum="6156.00" meanIntervalHaltingDuration="45.92" maxIntervalHaltingDuration="100.00" intervalHaltingDurationSum="3352.00" startedHalts="39.00" meanVehicleNumber="36.88" maxVehicleNumber="39" />
   <interval begin="22400.00" end="22500.00" id="e2_L10009_2_2" sampledSeconds="3437.08" nVehEntered="3" nVehLeft="3" nVehSeen="39" meanSpeed="0.35" meanTimeLoss="85.70" meanOccupancy="37.10" maxOccupancy="38.89" meanMaxJamLengthInVehicles="23.94" meanMaxJamLengthInMeters="228.75" maxJamLengthInVehicles="36" maxJamLengthInMeters="415.42" jamLengthInVehiclesSum="2986" jamLengthInMetersSum="31020.55" meanHaltingDuration="32.07" maxHaltingDuration="123.00" haltingDurationSum="4265.00" meanIntervalHaltingDuration="23.16" maxIntervalHaltingDuration="83.00" intervalHaltingDurationSum="3081.00" startedHalts="104.00" meanVehicleNumber="34.38" maxVehicleNumber="36" />
   <interval begin="22500.00" end="22600.00" id="e2_L10009_2_2" sampledSeconds="3506.81" nVehEntered="2" nVehLeft="4" nVehSeen="38" meanSpeed="0.25" meanTimeLoss="90.43" meanOccupancy="37.82" maxOccupancy="41.05" meanMaxJamLengthInVehicles="26.54" meanMaxJamLengthInMeters="307.63" maxJamLengthInVehicles="38" maxJamLengthInMeters="419.33" jamLengthInVehiclesSum="3221" jamLengthInMetersSum="36518.89" meanHaltingDuration="41.41" maxHaltingDuration="105.00" haltingDurationSum="4969.00" meanIntervalHaltingDuration="27.37" maxIntervalHaltingDuration="98.00" intervalHaltingDurationSum="3284.00" startedHalts="88.00" meanVehicleNumber="35.07" maxVehicleNumber="38" />
   <interval begin="22600.00" end="22700.00" id="e2_L10009_2_2" sampledSeconds="3554.00" nVehEntered="2" nVehLeft="0" nVehSeen="36" meanSpeed="0.05" meanTimeLoss="98.31" meanOccupancy="38.40" maxOccupancy="38.89" meanMaxJamLengthInVehicles="34.86" meanMaxJamLengthInMeters="400.88" maxJamLengthInVehicles="36" maxJamLengthInMeters="412.50" jamLengthInVehiclesSum="3516" jamLengthInMetersSum="40303.80" meanHaltingDuration="96.94" maxHaltingDuration="166.00" haltingDurationSum="4847.00" meanIntervalHaltingDuration="70.66" maxIntervalHaltingDuration="100.00" intervalHaltingDurationSum="3533.00" startedHalts="17.00" meanVehicleNumber="35.54" maxVehicleNumber="36" />
   <interval begin="22700.00" end="22800.00" id="e2_L10009_2_2" sampledSeconds="3600.00" nVehEntered="0" nVehLeft="0" nVehSeen="36" meanSpeed="0.00" meanTimeLoss="100.00" meanOccupancy="38.89" maxOccupancy="38.89" meanMaxJamLengthInVehicles="36.00" meanMaxJamLengthInMeters="410.10" maxJamLengthInVehicles="36" maxJamLengthInMeters="410.10" jamLengthInVehiclesSum="3600" jamLengthInMetersSum="41009.97" meanHaltingDuration="225.06" maxHaltingDuration="266.00" haltingDurationSum="8102.00" meanIntervalHaltingDuration="100.00" maxIntervalHaltingDuration="100.00" intervalHaltingDurationSum="3600.00" startedHalts="0.00" meanVehicleNumber="36.00" maxVehicleNumber="36" />
   <interval begin="22800.00" end="22900.00" id="e2_L10009_2_2" sampledSeconds="3600.00" nVehEntered="0" nVehLeft="0" nVehSeen="36" meanSpeed="0.00" meanTimeLoss="100.00" meanOccupancy="38.89" maxOccupancy="38.89" meanMaxJamLengthInVehicles="36.00" meanMaxJamLengthInMeters="410.10" maxJamLengthInVehicles="36" maxJamLengthInMeters="410.10" jamLengthInVehiclesSum="3600" jamLengthInMetersSum="41009.97" meanHaltingDuration="325.06" maxHaltingDuration="366.00" haltingDurationSum="11702.00" meanIntervalHaltingDuration="100.00" maxIntervalHaltingDuration="100.00" intervalHaltingDurationSum="3600.00" startedHalts="0.00" meanVehicleNumber="36.00" maxVehicleNumber="36" />
   <interval begin="22900.00" end="23000.00" id="e2_L10009_2_2" sampledSeconds="3600.00" nVehEntered="0" nVehLeft="0" nVehSeen="36" meanSpeed="0.00" meanTimeLoss="100.00" meanOccupancy="38.89" maxOccupancy="38.89" meanMaxJamLengthInVehicles="36.00" meanMaxJamLengthInMeters="410.10" maxJamLengthInVehicles="36" maxJamLengthInMeters="410.10" jamLengthInVehiclesSum="3600" jamLengthInMetersSum="41009.97" meanHaltingDuration="425.06" maxHaltingDuration="466.00" haltingDurationSum="15302.00" meanIntervalHaltingDuration="100.00" maxIntervalHaltingDuration="100.00" intervalHaltingDurationSum="3600.00" startedHalts="0.00" meanVehicleNumber="36.00" maxVehicleNumber="36" />
   <interval begin="23000.00" end="23100.00" id="e2_L10009_2_2" sampledSeconds="3600.00" nVehEntered="0" nVehLeft="0" nVehSeen="36" meanSpeed="0.00" meanTimeLoss="100.00" meanOccupancy="38.89" maxOccupancy="38.89" meanMaxJamLengthInVehicles="36.00" meanMaxJamLengthInMeters="410.10" maxJamLengthInVehicles="36" maxJamLengthInMeters="410.10" jamLengthInVehiclesSum="3600" jamLengthInMetersSum="41009.97" meanHaltingDuration="525.05" maxHaltingDuration="566.00" haltingDurationSum="18902.00" meanIntervalHaltingDuration="100.00" maxIntervalHaltingDuration="100.00" intervalHaltingDurationSum="3600.00" startedHalts="0.00" meanVehicleNumber="36.00" maxVehicleNumber="36" />
   <interval begin="23100.00" end="23200.00" id="e2_L10009_2_2" sampledSeconds="3600.00" nVehEntered="0" nVehLeft="0" nVehSeen="36" meanSpeed="0.00" meanTimeLoss="100.00" meanOccupancy="38.89" maxOccupancy="38.89" meanMaxJamLengthInVehicles="36.00" meanMaxJamLengthInMeters="410.10" maxJamLengthInVehicles="36" maxJamLengthInMeters="410.10" jamLengthInVehiclesSum="3600" jamLengthInMetersSum="41009.97" meanHaltingDuration="625.05" maxHaltingDuration="666.00" haltingDurationSum="22502.00" meanIntervalHaltingDuration="100.00" maxIntervalHaltingDuration="100.00" intervalHaltingDurationSum="3600.00" startedHalts="0.00" meanVehicleNumber="36.00" maxVehicleNumber="36" />
   <interval begin="23200.00" end="23300.00" id="e2_L10009_2_2" sampledSeconds="3600.00" nVehEntered="0" nVehLeft="0" nVehSeen="36" meanSpeed="0.00" meanTimeLoss="100.00" meanOccupancy="38.89" maxOccupancy="38.89" meanMaxJamLengthInVehicles="36.00" meanMaxJamLengthInMeters="410.10" maxJamLengthInVehicles="36" maxJamLengthInMeters="410.10" jamLengthInVehiclesSum="3600" jamLengthInMetersSum="41009.97" meanHaltingDuration="725.05" maxHaltingDuration="766.00" haltingDurationSum="26102.00" meanIntervalHaltingDuration="100.00" maxIntervalHaltingDuration="100.00" intervalHaltingDurationSum="3600.00" startedHalts="0.00" meanVehicleNumber="36.00" maxVehicleNumber="36" />
   <interval begin="23300.00" end="23400.00" id="e2_L10009_2_2" sampledSeconds="3600.00" nVehEntered="0" nVehLeft="0" nVehSeen="36" meanSpeed="0.00" meanTimeLoss="100.00" meanOccupancy="38.89" maxOccupancy="38.89" meanMaxJamLengthInVehicles="36.00" meanMaxJamLengthInMeters="410.10" maxJamLengthInVehicles="36" maxJamLengthInMeters="410.10" jamLengthInVehiclesSum="3600" jamLengthInMetersSum="41009.97" meanHaltingDuration="825.05" maxHaltingDuration="866.00" haltingDurationSum="29702.00" meanIntervalHaltingDuration="100.00" maxIntervalHaltingDuration="100.00" intervalHaltingDurationSum="3600.00" startedHalts="0.00" meanVehicleNumber="36.00" maxVehicleNumber="36" />
   <interval begin="23400.00" end="23500.00" id="e2_L10009_2_2" sampledSeconds="3600.00" nVehEntered="0" nVehLeft="0" nVehSeen="36" meanSpeed="0.00" meanTimeLoss="100.00" meanOccupancy="38.89" maxOccupancy="38.89" meanMaxJamLengthInVehicles="36.00" meanMaxJamLengthInMeters="410.10" maxJamLengthInVehicles="36" maxJamLengthInMeters="410.10" jamLengthInVehiclesSum="3600" jamLengthInMetersSum="41009.97" meanHaltingDuration="925.05" maxHaltingDuration="966.00" haltingDurationSum="33302.00" meanIntervalHaltingDuration="100.00" maxIntervalHaltingDuration="100.00" intervalHaltingDurationSum="3600.00" startedHalts="0.00" meanVehicleNumber="36.00" maxVehicleNumber="36" />
   <interval begin="23500.00" end="23600.00" id="e2_L10009_2_2" sampledSeconds="3600.00" nVehEntered="0" nVehLeft="0" nVehSeen="36" meanSpeed="0.00" meanTimeLoss="100.00" meanOccupancy="38.89" maxOccupancy="38.89" meanMaxJamLengthInVehicles="36.00" meanMaxJamLengthInMeters="410.10" maxJamLengthInVehicles="36" maxJamLengthInMeters="410.10" jamLengthInVehiclesSum="3600" jamLengthInMetersSum="41009.97" meanHaltingDuration="1025.06" maxHaltingDuration="1066.00" haltingDurationSum="36902.00" meanIntervalHaltingDuration="100.00" maxIntervalHaltingDuration="100.00" intervalHaltingDurationSum="3600.00" startedHalts="0.00" meanVehicleNumber="36.00" maxVehicleNumber="36" />
   <interval begin="23600.00" end="23700.00" id="e2_L10009_2_2" sampledSeconds="3600.00" nVehEntered="0" nVehLeft="0" nVehSeen="36" meanSpeed="0.00" meanTimeLoss="100.00" meanOccupancy="38.89" maxOccupancy="38.89" meanMaxJamLengthInVehicles="36.00" meanMaxJamLengthInMeters="410.10" maxJamLengthInVehicles="36" maxJamLengthInMeters="410.10" jamLengthInVehiclesSum="3600" jamLengthInMetersSum="41009.97" meanHaltingDuration="1125.06" maxHaltingDuration="1166.00" haltingDurationSum="40502.00" meanIntervalHaltingDuration="100.00" maxIntervalHaltingDuration="100.00" intervalHaltingDurationSum="3600.00" startedHalts="0.00" meanVehicleNumber="36.00" maxVehicleNumber="36" />
   <interval begin="23700.00" end="23800.00" id="e2_L10009_2_2" sampledSeconds="3600.00" nVehEntered="0" nVehLeft="0" nVehSeen="36" meanSpeed="0.00" meanTimeLoss="100.00" meanOccupancy="38.89" maxOccupancy="38.89" meanMaxJamLengthInVehicles="36.00" meanMaxJamLengthInMeters="410.10" maxJamLengthInVehicles="36" maxJamLengthInMeters="410.10" jamLengthInVehiclesSum="3600" jamLengthInMetersSum="41009.97" meanHaltingDuration="1225.06" maxHaltingDuration="1266.00" haltingDurationSum="44102.00" meanIntervalHaltingDuration="100.00" maxIntervalHaltingDuration="100.00" intervalHaltingDurationSum="3600.00" startedHalts="0.00" meanVehicleNumber="36.00" maxVehicleNumber="36" />
   <interval begin="23800.00" end="23900.00" id="e2_L10009_2_2" sampledSeconds="3193.31" nVehEntered="1" nVehLeft="7" nVehSeen="37" meanSpeed="0.46" meanTimeLoss="83.16" meanOccupancy="34.40" maxOccupancy="38.89" meanMaxJamLengthInVehicles="20.95" meanMaxJamLengthInMeters="254.13" maxJamLengthInVehicles="36" maxJamLengthInMeters="412.72" jamLengthInVehiclesSum="2573" jamLengthInMetersSum="29475.92" meanHaltingDuration="249.06" maxHaltingDuration="1278.00" haltingDurationSum="46823.00" meanIntervalHaltingDuration="14.47" maxIntervalHaltingDuration="90.00" intervalHaltingDurationSum="2721.00" startedHalts="154.00" meanVehicleNumber="31.97" maxVehicleNumber="36" />
   <interval begin="23900.00" end="24000.00" id="e2_L10009_2_2" sampledSeconds="3396.00" nVehEntered="6" nVehLeft="1" nVehSeen="36" meanSpeed="0.19" meanTimeLoss="92.87" meanOccupancy="36.69" maxOccupancy="38.89" meanMaxJamLengthInVehicles="25.69" meanMaxJamLengthInMeters="314.10" maxJamLengthInVehicles="36" maxJamLengthInMeters="413.97" jamLengthInVehiclesSum="3202" jamLengthInMetersSum="36835.34" meanHaltingDuration="42.73" maxHaltingDuration="111.00" haltingDurationSum="3675.00" meanIntervalHaltingDuration="37.99" maxIntervalHaltingDuration="100.00" intervalHaltingDurationSum="3267.00" startedHalts="65.00" meanVehicleNumber="33.96" maxVehicleNumber="36" />
   <interval begin="24000.00" end="24100.00" id="e2_L10009_2_2" sampledSeconds="3501.00" nVehEntered="1" nVehLeft="0" nVehSeen="36" meanSpeed="0.07" meanTimeLoss="96.71" meanOccupancy="37.82" maxOccupancy="38.89" meanMaxJamLengthInVehicles="33.01" meanMaxJamLengthInMeters="389.37" maxJamLengthInVehicles="35" maxJamLengthInMeters="410.00" jamLengthInVehiclesSum="3467" jamLengthInMetersSum="40348.30" meanHaltingDuration="117.96" maxHaltingDuration="211.00" haltingDurationSum="5780.00" meanIntervalHaltingDuration="71.04" maxIntervalHaltingDuration="100.00" intervalHaltingDurationSum="3481.00" startedHalts="14.00" meanVehicleNumber="35.01" maxVehicleNumber="36" />
   <interval begin="24100.00" end="24200.00" id="e2_L10009_2_2" sampledSeconds="3265.65" nVehEntered="0" nVehLeft="9" nVehSeen="36" meanSpeed="0.32" meanTimeLoss="88.42" meanOccupancy="35.23" maxOccupancy="38.89" meanMaxJamLengthInVehicles="29.26" meanMaxJamLengthInMeters="342.33" maxJamLengthInVehicles="36" maxJamLengthInMeters="418.43" jamLengthInVehiclesSum="2958" jamLengthInMetersSum="34427.59" meanHaltingDuration="116.58" maxHaltingDuration="309.00" haltingDurationSum="7228.00" meanIntervalHaltingDuration="47.40" maxIntervalHaltingDuration="100.00" intervalHaltingDurationSum="2939.00" startedHalts="28.00" meanVehicleNumber="32.68" maxVehicleNumber="36" />
   <interval begin="24200.00" end="24300.00" id="e2_L10009_2_2" sampledSeconds="2682.58" nVehEntered="5" nVehLeft="2" nVehSeen="32" meanSpeed="0.86" meanTimeLoss="78.09" meanOccupancy="28.97" maxOccupancy="32.41" meanMaxJamLengthInVehicles="16.96" meanMaxJamLengthInMeters="220.57" maxJamLengthInVehicles="30" maxJamLengthInMeters="377.15" jamLengthInVehiclesSum="1940" jamLengthInMetersSum="24064.83" meanHaltingDuration="38.98" maxHaltingDuration="257.00" haltingDurationSum="5691.00" meanIntervalHaltingDuration="14.12" maxIntervalHaltingDuration="90.00" intervalHaltingDurationSum="2061.00" startedHalts="125.00" meanVehicleNumber="26.83" maxVehicleNumber="30" />
   <interval begin="24300.00" end="24400.00" id="e2_L10009_2_2" sampledSeconds="3244.00" nVehEntered="3" nVehLeft="0" nVehSeen="33" meanSpeed="0.01" meanTimeLoss="98.24" meanOccupancy="35.05" maxOccupancy="35.65" meanMaxJamLengthInVehicles="32.36" meanMaxJamLengthInMeters="415.35" maxJamLengthInVehicles="33" maxJamLengthInMeters="424.18" jamLengthInVehiclesSum="3236" jamLengthInMetersSum="41535.21" meanHaltingDuration="142.51" maxHaltingDuration="190.00" haltingDurationSum="4703.00" meanIntervalHaltingDuration="98.15" maxIntervalHaltingDuration="100.00" intervalHaltingDurationSum="3239.00" startedHalts="3.00" meanVehicleNumber="32.44" maxVehicleNumber="33" />
   <interval begin="24400.00" end="24500.00" id="e2_L10009_2_2" sampledSeconds="3300.00" nVehEntered="0" nVehLeft="0" nVehSeen="33" meanSpeed="0.00" meanTimeLoss="100.00" meanOccupancy="35.65" maxOccupancy="35.65" meanMaxJamLengthInVehicles="33.00" meanMaxJamLengthInMeters="424.08" maxJamLengthInVehicles="33" maxJamLengthInMeters="424.08" jamLengthInVehiclesSum="3300" jamLengthInMetersSum="42408.19" meanHaltingDuration="242.51" maxHaltingDuration="290.00" haltingDurationSum="8003.00" meanIntervalHaltingDuration="100.00" maxIntervalHaltingDuration="100.00" intervalHaltingDurationSum="3300.00" startedHalts="0.00" meanVehicleNumber="33.00" maxVehicleNumber="33" />
   <interval begin="24500.00" end="24600.00" id="e2_L10009_2_2" sampledSeconds="3300.00" nVehEntered="0" nVehLeft="0" nVehSeen="33" meanSpeed="0.00" meanTimeLoss="100.00" meanOccupancy="35.65" maxOccupancy="35.65" meanMaxJamLengthInVehicles="33.00" meanMaxJamLengthInMeters="424.08" maxJamLengthInVehicles="33" maxJamLengthInMeters="424.08" jamLengthInVehiclesSum="3300" jamLengthInMetersSum="42408.18" meanHaltingDuration="342.51" maxHaltingDuration="390.00" haltingDurationSum="11303.00" meanIntervalHaltingDuration="100.00" maxIntervalHaltingDuration="100.00" intervalHaltingDurationSum="3300.00" startedHalts="0.00" meanVehicleNumber="33.00" maxVehicleNumber="33" />
   <interval begin="24600.00" end="24700.00" id="e2_L10009_2_2" sampledSeconds="3300.00" nVehEntered="0" nVehLeft="0" nVehSeen="33" meanSpeed="0.00" meanTimeLoss="100.00" meanOccupancy="35.65" maxOccupancy="35.65" meanMaxJamLengthInVehicles="33.00" meanMaxJamLengthInMeters="424.08" maxJamLengthInVehicles="33" maxJamLengthInMeters="424.08" jamLengthInVehiclesSum="3300" jamLengthInMetersSum="42408.17" meanHaltingDuration="442.51" maxHaltingDuration="490.00" haltingDurationSum="14603.00" meanIntervalHaltingDuration="100.00" maxIntervalHaltingDuration="100.00" intervalHaltingDurationSum="3300.00" startedHalts="0.00" meanVehicleNumber="33.00" maxVehicleNumber="33" />
   <interval begin="24700.00" end="24800.00" id="e2_L10009_2_2" sampledSeconds="3022.02" nVehEntered="0" nVehLeft="5" nVehSeen="33" meanSpeed="0.27" meanTimeLoss="89.60" meanOccupancy="32.58" maxOccupancy="35.65" meanMaxJamLengthInVehicles="23.64" meanMaxJamLengthInMeters="294.69" maxJamLengthInVehicles="33" maxJamLengthInMeters="424.08" jamLengthInVehiclesSum="2702" jamLengthInMetersSum="33936.47" meanHaltingDuration="127.96" maxHaltingDuration="519.00" haltingDurationSum="17403.00" meanIntervalHaltingDuration="20.59" maxIntervalHaltingDuration="100.00" intervalHaltingDurationSum="2800.00" startedHalts="105.00" meanVehicleNumber="30.24" maxVehicleNumber="33" />
   <interval begin="24800.00" end="24900.00" id="e2_L10009_2_2" sampledSeconds="2597.99" nVehEntered="3" nVehLeft="4" nVehSeen="31" meanSpeed="1.37" meanTimeLoss="74.64" meanOccupancy="28.00" maxOccupancy="30.25" meanMaxJamLengthInVehicles="13.51" meanMaxJamLengthInMeters="149.02" maxJamLengthInVehicles="22" maxJamLengthInMeters="263.86" jamLengthInVehiclesSum="1563" jamLengthInMetersSum="16999.70" meanHaltingDuration="36.02" maxHaltingDuration="515.00" haltingDurationSum="4395.00" meanIntervalHaltingDuration="13.59" maxIntervalHaltingDuration="43.00" intervalHaltingDurationSum="1658.00" startedHalts="98.00" meanVehicleNumber="25.99" maxVehicleNumber="28" />
   <interval begin="24900.00" end="25000.00" id="e2_L10009_2_2" sampledSeconds="2940.62" nVehEntered="6" nVehLeft="6" nVehSeen="33" meanSpeed="0.49" meanTimeLoss="85.59" meanOccupancy="31.74" maxOccupancy="35.65" meanMaxJamLengthInVehicles="24.60" meanMaxJamLengthInMeters="307.87" maxJamLengthInVehicles="32" maxJamLengthInMeters="392.59" jamLengthInVehiclesSum="2516" jamLengthInMetersSum="31219.80" meanHaltingDuration="43.01" maxHaltingDuration="108.00" haltingDurationSum="3140.00" meanIntervalHaltingDuration="35.12" maxIntervalHaltingDuration="100.00" intervalHaltingDurationSum="2564.00" startedHalts="50.00" meanVehicleNumber="29.41" maxVehicleNumber="33" />
   <interval begin="25000.00" end="25100.00" id="e2_L10009_2_2" sampledSeconds="3019.00" nVehEntered="7" nVehLeft="0" nVehSeen="34" meanSpeed="0.42" meanTimeLoss="85.80" meanOccupancy="32.62" maxOccupancy="36.73" meanMaxJamLengthInVehicles="23.38" meanMaxJamLengthInMeters="280.33" maxJamLengthInVehicles="34" maxJamLengthInMeters="410.89" jamLengthInVehiclesSum="2534" jamLengthInMetersSum="29706.77" meanHaltingDuration="37.72" maxHaltingDuration="113.00" haltingDurationSum="3508.00" meanIntervalHaltingDuration="28.04" maxIntervalHaltingDuration="100.00" intervalHaltingDurationSum="2608.00" startedHalts="74.00" meanVehicleNumber="30.19" maxVehicleNumber="34" />
   <interval begin="25100.00" end="25200.00" id="e2_L10009_2_2" sampledSeconds="3400.00" nVehEntered="0" nVehLeft="0" nVehSeen="34" meanSpeed="0.00" meanTimeLoss="100.00" meanOccupancy="36.73" maxOccupancy="36.73" meanMaxJamLengthInVehicles="34.00" meanMaxJamLengthInMeters="410.10" maxJamLengthInVehicles="34" maxJamLengthInMeters="410.11" jamLengthInVehiclesSum="3400" jamLengthInMetersSum="41010.02" meanHaltingDuration="170.76" maxHaltingDuration="213.00" haltingDurationSum="5806.00" meanIntervalHaltingDuration="100.00" maxIntervalHaltingDuration="100.00" intervalHaltingDurationSum="3400.00" startedHalts="0.00" meanVehicleNumber="34.00" maxVehicleNumber="34" />
   <interval begin="25200.00" end="25300.00" id="e2_L10009_2_2" sampledSeconds="3400.00" nVehEntered="0" nVehLeft="0" nVehSeen="34" meanSpeed="0.00" meanTimeLoss="100.00" meanOccupancy="36.73" maxOccupancy="36.73" meanMaxJamLengthInVehicles="34.00" meanMaxJamLengthInMeters="410.10" maxJamLengthInVehicles="34" maxJamLengthInMeters="410.10" jamLengthInVehiclesSum="3400" jamLengthInMetersSum="41009.97" meanHaltingDuration="270.76" maxHaltingDuration="313.00" haltingDurationSum="9206.00" meanIntervalHaltingDuration="100.00" maxIntervalHaltingDuration="100.00" intervalHaltingDurationSum="3400.00" startedHalts="0.00" meanVehicleNumber="34.00" maxVehicleNumber="34" />
   <interval begin="25300.00" end="25400.00" id="e2_L10009_2_2" sampledSeconds="3400.00" nVehEntered="0" nVehLeft="0" nVehSeen="34" meanSpeed="0.00" meanTimeLoss="100.00" meanOccupancy="36.73" maxOccupancy="36.73" meanMaxJamLengthInVehicles="34.00" meanMaxJamLengthInMeters="410.10" maxJamLengthInVehicles="34" maxJamLengthInMeters="410.10" jamLengthInVehiclesSum="3400" jamLengthInMetersSum="41009.95" meanHaltingDuration="370.76" maxHaltingDuration="413.00" haltingDurationSum="12606.00" meanIntervalHaltingDuration="100.00" maxIntervalHaltingDuration="100.00" intervalHaltingDurationSum="3400.00" startedHalts="0.00" meanVehicleNumber="34.00" maxVehicleNumber="34" />
   <interval begin="25400.00" end="25500.00" id="e2_L10009_2_2" sampledSeconds="3239.07" nVehEntered="0" nVehLeft="7" nVehSeen="34" meanSpeed="0.19" meanTimeLoss="93.85" meanOccupancy="34.94" maxOccupancy="36.73" meanMaxJamLengthInVehicles="29.88" meanMaxJamLengthInMeters="366.89" maxJamLengthInVehicles="34" maxJamLengthInMeters="411.49" jamLengthInVehiclesSum="3034" jamLengthInMetersSum="37004.69" meanHaltingDuration="256.70" maxHaltingDuration="473.00" haltingDurationSum="15659.00" meanIntervalHaltingDuration="50.05" maxIntervalHaltingDuration="100.00" intervalHaltingDurationSum="3053.00" startedHalts="29.00" meanVehicleNumber="32.41" maxVehicleNumber="34" />
   <interval begin="25500.00" end="25600.00" id="e2_L10009_2_2" sampledSeconds="2154.72" nVehEntered="5" nVehLeft="13" nVehSeen="32" meanSpeed="2.02" meanTimeLoss="56.43" meanOccupancy="23.19" maxOccupancy="29.17" meanMaxJamLengthInVehicles="4.48" meanMaxJamLengthInMeters="46.89" maxJamLengthInVehicles="16" maxJamLengthInMeters="196.78" jamLengthInVehiclesSum="543" jamLengthInMetersSum="5394.36" meanHaltingDuration="42.52" maxHaltingDuration="473.00" haltingDurationSum="7823.00" meanIntervalHaltingDuration="3.84" maxIntervalHaltingDuration="44.00" intervalHaltingDurationSum="706.00" startedHalts="167.00" meanVehicleNumber="21.58" maxVehicleNumber="27" />
   <interval begin="25600.00" end="25700.00" id="e2_L10009_2_2" sampledSeconds="1657.32" nVehEntered="9" nVehLeft="15" nVehSeen="28" meanSpeed="2.81" meanTimeLoss="45.86" meanOccupancy="17.76" maxOccupancy="21.61" meanMaxJamLengthInVehicles="0.71" meanMaxJamLengthInMeters="4.65" maxJamLengthInVehicles="3" maxJamLengthInMeters="50.30" jamLengthInVehiclesSum="102" jamLengthInMetersSum="607.89" meanHaltingDuration="1.55" maxHaltingDuration="4.00" haltingDurationSum="286.00" meanIntervalHaltingDuration="1.55" maxIntervalHaltingDuration="4.00" intervalHaltingDurationSum="286.00" startedHalts="184.00" meanVehicleNumber="16.64" maxVehicleNumber="20" />
   <interval begin="25700.00" end="25800.00" id="e2_L10009_2_2" sampledSeconds="1438.63" nVehEntered="7" nVehLeft="4" nVehSeen="20" meanSpeed="2.27" meanTimeLoss="58.85" meanOccupancy="15.50" maxOccupancy="17.29" meanMaxJamLengthInVehicles="4.62" meanMaxJamLengthInMeters="56.92" maxJamLengthInVehicles="16" maxJamLengthInMeters="258.37" jamLengthInVehiclesSum="475" jamLengthInMetersSum="5752.18" meanHaltingDuration="6.06" maxHaltingDuration="50.00" haltingDurationSum="570.00" meanIntervalHaltingDuration="6.02" maxIntervalHaltingDuration="50.00" intervalHaltingDurationSum="566.00" startedHalts="91.00" meanVehicleNumber="14.41" maxVehicleNumber="16" />