<?xml version="1.0" encoding="UTF-8"?>

<!-- generated on Sun Feb 17 15:57:00 2019 by 
<configuration xmlns:xsi="http://www.w3.org/2001/XMLSchema-instance" xsi:noNamespaceSchemaLocation="http://sumo.dlr.de/xsd/Configuration.xsd">

    <input>
        <net-file value="/home/sda/Documents/sumo-sathorn-ray/models/sathorn-morning/sathorn_w_fixed_20160404.net.xml"/>
        <route-files value="/home/sda/Documents/sumo-sathorn-ray/models/sathorn-morning/Great-route/sathorn_w_20160422edit2.rou.xml"/>
        <additional-files value="/home/sda/Documents/sumo-sathorn-ray/models/sathorn-morning/sathon_wide_tls_20160418_edited.add.xml,/home/sda/Documents/sumo-sathorn-ray/detectors/sathorn_w_detectors.add.xml"/>
    </input>

    <time>
        <begin value="21600"/>
        <end value="32400"/>
        <step-length value="1"/>
    </time>

    <processing>
        <no-internal-links value="true"/>
        <ignore-junction-blocker value="-1"/>
        <time-to-teleport value="-1"/>
        <eager-insert value="true"/>
        <time-to-impatience value="300"/>
    </processing>

    <report>
        <no-warnings value="true"/>
    </report>

    <random_number>
        <random value="false"/>
        <seed value="20"/>
    </random_number>

    <gui_only>
        <gui-settings-file value="/home/sda/Documents/sumo-sathorn-ray/gui-settings/gui-settings-file-surasak.xml"/>
        <quit-on-end value="true"/>
        <start value="true"/>
        <tracker-interval value="1"/>
    </gui_only>

</configuration>
-->

<detector xmlns:xsi="http://www.w3.org/2001/XMLSchema-instance" xsi:noNamespaceSchemaLocation="http://sumo.dlr.de/xsd/det_e2_file.xsd">
   <interval begin="21600.00" end="21700.00" id="e2_L40_3_2" sampledSeconds="0.00" nVehEntered="0" nVehLeft="0" nVehSeen="0" meanSpeed="-1.00" meanTimeLoss="-1.00" meanOccupancy="0.00" maxOccupancy="0.00" meanMaxJamLengthInVehicles="0.00" meanMaxJamLengthInMeters="0.00" maxJamLengthInVehicles="0" maxJamLengthInMeters="0.00" jamLengthInVehiclesSum="0" jamLengthInMetersSum="0.00" meanHaltingDuration="0.00" maxHaltingDuration="0.00" haltingDurationSum="0.00" meanIntervalHaltingDuration="0.00" maxIntervalHaltingDuration="0.00" intervalHaltingDurationSum="0.00" startedHalts="0.00" meanVehicleNumber="0.00" maxVehicleNumber="0" />
   <interval begin="21700.00" end="21800.00" id="e2_L40_3_2" sampledSeconds="0.00" nVehEntered="0" nVehLeft="0" nVehSeen="0" meanSpeed="-1.00" meanTimeLoss="-1.00" meanOccupancy="0.00" maxOccupancy="0.00" meanMaxJamLengthInVehicles="0.00" meanMaxJamLengthInMeters="0.00" maxJamLengthInVehicles="0" maxJamLengthInMeters="0.00" jamLengthInVehiclesSum="0" jamLengthInMetersSum="0.00" meanHaltingDuration="0.00" maxHaltingDuration="0.00" haltingDurationSum="0.00" meanIntervalHaltingDuration="0.00" maxIntervalHaltingDuration="0.00" intervalHaltingDurationSum="0.00" startedHalts="0.00" meanVehicleNumber="0.00" maxVehicleNumber="0" />
   <interval begin="21800.00" end="21900.00" id="e2_L40_3_2" sampledSeconds="0.00" nVehEntered="0" nVehLeft="0" nVehSeen="0" meanSpeed="-1.00" meanTimeLoss="-1.00" meanOccupancy="0.00" maxOccupancy="0.00" meanMaxJamLengthInVehicles="0.00" meanMaxJamLengthInMeters="0.00" maxJamLengthInVehicles="0" maxJamLengthInMeters="0.00" jamLengthInVehiclesSum="0" jamLengthInMetersSum="0.00" meanHaltingDuration="0.00" maxHaltingDuration="0.00" haltingDurationSum="0.00" meanIntervalHaltingDuration="0.00" maxIntervalHaltingDuration="0.00" intervalHaltingDurationSum="0.00" startedHalts="0.00" meanVehicleNumber="0.00" maxVehicleNumber="0" />
   <interval begin="21900.00" end="22000.00" id="e2_L40_3_2" sampledSeconds="0.00" nVehEntered="0" nVehLeft="0" nVehSeen="0" meanSpeed="-1.00" meanTimeLoss="-1.00" meanOccupancy="0.00" maxOccupancy="0.00" meanMaxJamLengthInVehicles="0.00" meanMaxJamLengthInMeters="0.00" maxJamLengthInVehicles="0" maxJamLengthInMeters="0.00" jamLengthInVehiclesSum="0" jamLengthInMetersSum="0.00" meanHaltingDuration="0.00" maxHaltingDuration="0.00" haltingDurationSum="0.00" meanIntervalHaltingDuration="0.00" maxIntervalHaltingDuration="0.00" intervalHaltingDurationSum="0.00" startedHalts="0.00" meanVehicleNumber="0.00" maxVehicleNumber="0" />
   <interval begin="22000.00" end="22100.00" id="e2_L40_3_2" sampledSeconds="32.00" nVehEntered="2" nVehLeft="2" nVehSeen="2" meanSpeed="11.87" meanTimeLoss="0.81" meanOccupancy="0.45" maxOccupancy="1.47" meanMaxJamLengthInVehicles="0.00" meanMaxJamLengthInMeters="0.00" maxJamLengthInVehicles="0" maxJamLengthInMeters="0.00" jamLengthInVehiclesSum="0" jamLengthInMetersSum="0.00" meanHaltingDuration="0.00" maxHaltingDuration="0.00" haltingDurationSum="0.00" meanIntervalHaltingDuration="0.00" maxIntervalHaltingDuration="0.00" intervalHaltingDurationSum="0.00" startedHalts="0.00" meanVehicleNumber="0.33" maxVehicleNumber="1" />
   <interval begin="22100.00" end="22200.00" id="e2_L40_3_2" sampledSeconds="0.00" nVehEntered="0" nVehLeft="0" nVehSeen="0" meanSpeed="-1.00" meanTimeLoss="-1.00" meanOccupancy="0.00" maxOccupancy="0.00" meanMaxJamLengthInVehicles="0.00" meanMaxJamLengthInMeters="0.00" maxJamLengthInVehicles="0" maxJamLengthInMeters="0.00" jamLengthInVehiclesSum="0" jamLengthInMetersSum="0.00" meanHaltingDuration="0.00" maxHaltingDuration="0.00" haltingDurationSum="0.00" meanIntervalHaltingDuration="0.00" maxIntervalHaltingDuration="0.00" intervalHaltingDurationSum="0.00" startedHalts="0.00" meanVehicleNumber="0.00" maxVehicleNumber="0" />
   <interval begin="22200.00" end="22300.00" id="e2_L40_3_2" sampledSeconds="37.88" nVehEntered="5" nVehLeft="3" nVehSeen="5" meanSpeed="8.21" meanTimeLoss="2.60" meanOccupancy="0.43" maxOccupancy="1.90" meanMaxJamLengthInVehicles="0.08" meanMaxJamLengthInMeters="0.11" maxJamLengthInVehicles="1" maxJamLengthInMeters="1.39" jamLengthInVehiclesSum="8" jamLengthInMetersSum="10.99" meanHaltingDuration="9.00" maxHaltingDuration="9.00" haltingDurationSum="9.00" meanIntervalHaltingDuration="9.00" maxIntervalHaltingDuration="9.00" intervalHaltingDurationSum="9.00" startedHalts="1.00" meanVehicleNumber="0.39" maxVehicleNumber="2" />
   <interval begin="22300.00" end="22400.00" id="e2_L40_3_2" sampledSeconds="525.00" nVehEntered="7" nVehLeft="0" nVehSeen="9" meanSpeed="0.30" meanTimeLoss="56.95" meanOccupancy="6.66" maxOccupancy="12.16" meanMaxJamLengthInVehicles="4.89" meanMaxJamLengthInMeters="31.70" maxJamLengthInVehicles="9" maxJamLengthInMeters="60.65" jamLengthInVehiclesSum="489" jamLengthInMetersSum="3169.95" meanHaltingDuration="56.22" maxHaltingDuration="109.00" haltingDurationSum="506.00" meanIntervalHaltingDuration="55.22" maxIntervalHaltingDuration="100.00" intervalHaltingDurationSum="497.00" startedHalts="8.00" meanVehicleNumber="5.25" maxVehicleNumber="9" />
   <interval begin="22400.00" end="22500.00" id="e2_L40_3_2" sampledSeconds="1286.00" nVehEntered="7" nVehLeft="0" nVehSeen="16" meanSpeed="0.21" meanTimeLoss="79.00" meanOccupancy="17.82" maxOccupancy="22.42" meanMaxJamLengthInVehicles="12.42" meanMaxJamLengthInMeters="84.47" maxJamLengthInVehicles="16" maxJamLengthInMeters="109.49" jamLengthInVehiclesSum="1242" jamLengthInMetersSum="8446.63" meanHaltingDuration="109.69" maxHaltingDuration="209.00" haltingDurationSum="1755.00" meanIntervalHaltingDuration="78.06" maxIntervalHaltingDuration="100.00" intervalHaltingDurationSum="1249.00" startedHalts="7.00" meanVehicleNumber="12.86" maxVehicleNumber="16" />
   <interval begin="22500.00" end="22600.00" id="e2_L40_3_2" sampledSeconds="2031.00" nVehEntered="8" nVehLeft="0" nVehSeen="24" meanSpeed="0.09" meanTimeLoss="84.01" meanOccupancy="28.74" maxOccupancy="34.15" meanMaxJamLengthInVehicles="19.92" meanMaxJamLengthInMeters="136.92" maxJamLengthInVehicles="24" maxJamLengthInMeters="165.55" jamLengthInVehiclesSum="1992" jamLengthInMetersSum="13691.61" meanHaltingDuration="156.46" maxHaltingDuration="309.00" haltingDurationSum="3755.00" meanIntervalHaltingDuration="83.33" maxIntervalHaltingDuration="100.00" intervalHaltingDurationSum="2000.00" startedHalts="8.00" meanVehicleNumber="20.31" maxVehicleNumber="24" />
   <interval begin="22600.00" end="22700.00" id="e2_L40_3_2" sampledSeconds="2764.00" nVehEntered="8" nVehLeft="0" nVehSeen="32" meanSpeed="0.07" meanTimeLoss="85.90" meanOccupancy="39.48" maxOccupancy="45.88" meanMaxJamLengthInVehicles="27.25" meanMaxJamLengthInMeters="188.15" maxJamLengthInVehicles="31" maxJamLengthInMeters="214.36" jamLengthInVehiclesSum="2725" jamLengthInMetersSum="18815.45" meanHaltingDuration="209.26" maxHaltingDuration="409.00" haltingDurationSum="6487.00" meanIntervalHaltingDuration="88.13" maxIntervalHaltingDuration="100.00" intervalHaltingDurationSum="2732.00" startedHalts="7.00" meanVehicleNumber="27.64" maxVehicleNumber="32" />
   <interval begin="22700.00" end="22800.00" id="e2_L40_3_2" sampledSeconds="3440.57" nVehEntered="13" nVehLeft="10" nVehSeen="45" meanSpeed="0.34" meanTimeLoss="74.34" meanOccupancy="49.58" maxOccupancy="51.74" meanMaxJamLengthInVehicles="27.98" meanMaxJamLengthInMeters="197.82" maxJamLengthInVehicles="35" maxJamLengthInMeters="251.72" jamLengthInVehiclesSum="3080" jamLengthInMetersSum="21838.90" meanHaltingDuration="71.94" maxHaltingDuration="447.00" haltingDurationSum="9208.00" meanIntervalHaltingDuration="24.45" maxIntervalHaltingDuration="95.00" intervalHaltingDurationSum="3130.00" startedHalts="99.00" meanVehicleNumber="34.45" maxVehicleNumber="36" />
   <interval begin="22800.00" end="22900.00" id="e2_L40_3_2" sampledSeconds="3914.08" nVehEntered="9" nVehLeft="1" nVehSeen="44" meanSpeed="0.13" meanTimeLoss="88.00" meanOccupancy="56.37" maxOccupancy="62.00" meanMaxJamLengthInVehicles="37.61" meanMaxJamLengthInMeters="268.44" maxJamLengthInVehicles="43" maxJamLengthInMeters="