<?xml version="1.0" encoding="UTF-8"?>

<!-- generated on Sun Feb 17 15:57:00 2019 by 
<configuration xmlns:xsi="http://www.w3.org/2001/XMLSchema-instance" xsi:noNamespaceSchemaLocation="http://sumo.dlr.de/xsd/Configuration.xsd">

    <input>
        <net-file value="/home/sda/Documents/sumo-sathorn-ray/models/sathorn-morning/sathorn_w_fixed_20160404.net.xml"/>
        <route-files value="/home/sda/Documents/sumo-sathorn-ray/models/sathorn-morning/Great-route/sathorn_w_20160422edit2.rou.xml"/>
        <additional-files value="/home/sda/Documents/sumo-sathorn-ray/models/sathorn-morning/sathon_wide_tls_20160418_edited.add.xml,/home/sda/Documents/sumo-sathorn-ray/detectors/sathorn_w_detectors.add.xml"/>
    </input>

    <time>
        <begin value="21600"/>
        <end value="32400"/>
        <step-length value="1"/>
    </time>

    <processing>
        <no-internal-links value="true"/>
        <ignore-junction-blocker value="-1"/>
        <time-to-teleport value="-1"/>
        <eager-insert value="true"/>
        <time-to-impatience value="300"/>
    </processing>

    <report>
        <no-warnings value="true"/>
    </report>

    <random_number>
        <random value="false"/>
        <seed value="20"/>
    </random_number>

    <gui_only>
        <gui-settings-file value="/home/sda/Documents/sumo-sathorn-ray/gui-settings/gui-settings-file-surasak.xml"/>
        <quit-on-end value="true"/>
        <start value="true"/>
        <tracker-interval value="1"/>
    </gui_only>

</configuration>
-->

<detector xmlns:xsi="http://www.w3.org/2001/XMLSchema-instance" xsi:noNamespaceSchemaLocation="http://sumo.dlr.de/xsd/det_e2_file.xsd">
   <interval begin="21600.00" end="21700.00" id="e2_L40273_0_4" sampledSeconds="58.97" nVehEntered="11" nVehLeft="9" nVehSeen="11" meanSpeed="11.65" meanTimeLoss="0.36" meanOccupancy="4.15" maxOccupancy="21.64" meanMaxJamLengthInVehicles="0.00" meanMaxJamLengthInMeters="0.00" maxJamLengthInVehicles="0" maxJamLengthInMeters="0.00" jamLengthInVehiclesSum="0" jamLengthInMetersSum="0.00" meanHaltingDuration="0.00" maxHaltingDuration="0.00" haltingDurationSum="0.00" meanIntervalHaltingDuration="0.00" maxIntervalHaltingDuration="0.00" intervalHaltingDurationSum="0.00" startedHalts="0.00" meanVehicleNumber="0.69" maxVehicleNumber="3" />
   <interval begin="21700.00" end="21800.00" id="e2_L40273_0_4" sampledSeconds="207.24" nVehEntered="37" nVehLeft="36" nVehSeen="39" meanSpeed="11.64" meanTimeLoss="0.36" meanOccupancy="13.90" maxOccupancy="21.71" meanMaxJamLengthInVehicles="0.00" meanMaxJamLengthInMeters="0.00" maxJamLengthInVehicles="0" maxJamLengthInMeters="0.00" jamLengthInVehiclesSum="0" jamLengthInMetersSum="0.00" meanHaltingDuration="0.00" maxHaltingDuration="0.00" haltingDurationSum="0.00" meanIntervalHaltingDuration="0.00" maxIntervalHaltingDuration="0.00" intervalHaltingDurationSum="0.00" startedHalts="0.00" meanVehicleNumber="2.44" maxVehicleNumber="5" />
   <interval begin="21800.00" end="21900.00" id="e2_L40273_0_4" sampledSeconds="222.67" nVehEntered="38" nVehLeft="39" nVehSeen="41" meanSpeed="10.12" meanTimeLoss="1.02" meanOccupancy="14.94" maxOccupancy="24.19" meanMaxJamLengthInVehicles="0.00" meanMaxJamLengthInMeters="0.00" maxJamLengthInVehicles="0" maxJamLengthInMeters="0.00" jamLengthInVehiclesSum="0" jamLengthInMetersSum="0.00" meanHaltingDuration="0.00" maxHaltingDuration="0.00" haltingDurationSum="0.00" meanIntervalHaltingDuration="0.00" maxIntervalHaltingDuration="0.00" intervalHaltingDurationSum="0.00" startedHalts="0.00" meanVehicleNumber="2.56" maxVehicleNumber="4" />
   <interval begin="21900.00" end="22000.00" id="e2_L40273_0_4" sampledSeconds="204.17" nVehEntered="36" nVehLeft="36" nVehSeen="38" meanSpeed="10.44" meanTimeLoss="0.86" meanOccupancy="13.70" maxOccupancy="21.64" meanMaxJamLengthInVehicles="0.00" meanMaxJamLengthInMeters="0.00" maxJamLengthInVehicles="0" maxJamLengthInMeters="0.00" jamLengthInVehiclesSum="0" jamLengthInMetersSum="0.00" meanHaltingDuration="1.00" maxHaltingDuration="1.00" haltingDurationSum="1.00" meanIntervalHaltingDuration="1.00" maxIntervalHaltingDuration="1.00" intervalHaltingDurationSum="1.00" startedHalts="1.00" meanVehicleNumber="2.37" maxVehicleNumber="4" />
   <interval begin="22000.00" end="22100.00" id="e2_L40273_0_4" sampledSeconds="200.23" nVehEntered="37" nVehLeft="38" nVehSeen="39" meanSpeed="11.47" meanTimeLoss="0.42" meanOccupancy="13.62" maxOccupancy="21.66" meanMaxJamLengthInVehicles="0.00" meanMaxJamLengthInMeters="0.00" maxJamLengthInVehicles="0" maxJamLengthInMeters="0.00" jamLengthInVehiclesSum="0" jamLengthInMetersSum="0.00" meanHaltingDuration="0.00" maxHaltingDuration="0.00" haltingDurationSum="0.00" meanIntervalHaltingDuration="0.00" maxIntervalHaltingDuration="0.00" intervalHaltingDurationSum="0.00" startedHalts="0.00" meanVehicleNumber="2.38" maxVehicleNumber="4" />
   <interval begin="22100.00" end="22200.00" id="e2_L40273_0_4" sampledSeconds="216.42" nVehEntered="39" nVehLeft="38" nVehSeen="40" meanSpeed="11.58" meanTimeLoss="0.40" meanOccupancy="14.58" maxOccupancy="21.64" meanMaxJamLengthInVehicles="0.00" meanMaxJamLengthInMeters="0.00" maxJamLengthInVehicles="0" maxJamLengthInMeters="0.00" jamLengthInVehiclesSum="0" jamLengthInMetersSum="0.00" meanHaltingDuration="0.00" maxHaltingDuration="0.00" haltingDurationSum="0.00" meanIntervalHaltingDuration="0.00" maxIntervalHaltingDuration="0.00" intervalHaltingDurationSum="0.00" startedHalts="0.00" meanVehicleNumber="2.53" maxVehicleNumber="4" />
   <interval begin="22200.00" end="22300.00" id="e2_L40273_0_4" sampledSeconds="202.45" nVehEntered="37" nVehLeft="36" nVehSeen="39" meanSpeed="10.78" meanTimeLoss="0.69" meanOccupancy="13.54" maxOccupancy="28.85" meanMaxJamLengthInVehicles="0.00" meanMaxJamLengthInMeters="0.00" maxJamLengthInVehicles="0" maxJamLengthInMeters="0.00" jamLengthInVehiclesSum="0" jamLengthInMetersSum="0.00" meanHaltingDuration="0.00" maxHaltingDuration="0.00" haltingDurationSum="0.00" meanIntervalHaltingDuration="0.00" maxIntervalHaltingDuration="0.00" intervalHaltingDurationSum="0.00" startedHalts="0.00" meanVehicleNumber="2.32" maxVehicleNumber="5" />
   <interval begin="22300.00" end="22400.00" id="e2_L40273_0_4" sampledSeconds="229.26" nVehEntered="37" nVehLeft="37" nVehSeen="40" meanSpeed="9.21" meanTimeLoss="1.50" meanOccupancy="15.82" maxOccupancy="28.85" meanMaxJamLengthInVehicles="0.01" meanMaxJamLengthInMeters="0.01" maxJamLengthInVehicles="1" maxJamLengthInMeters="1.07" jamLengthInVehiclesSum="1" jamLengthInMetersSum="1.07" meanHaltingDuration="1.25" maxHaltingDuration="2.00" haltingDurationSum="5.00" meanIntervalHaltingDuration="1.25" maxIntervalHaltingDuration="2.00" intervalHaltingDurationSum="5.00" startedHalts="4.00" meanVehicleNumber="2.57" maxVehicleNumber="4" />
   <interval begin="22400.00" end="22500.00" id="e2_L40273_0_4" sampledSeconds="596.35" nVehEntered="37" nVehLeft="38" nVehSeen="40" meanSpeed="2.14" meanTimeLoss="12.35" meanOccupancy="38.83" maxOccupancy="58.62" meanMaxJamLengthInVehicles="3.52" meanMaxJamLengthInMeters="23.05" maxJamLengthInVehicles="8" maxJamLengthInMeters="53.63" jamLengthInVehiclesSum="353" jamLengthInMetersSum="2309.48" meanHaltingDuration="20.07" maxHaltingDuration="59.00" haltingDurationSum="301.00" meanIntervalHaltingDuration="20.07" maxIntervalHaltingDuration="59.00" intervalHaltingDurationSum="301.00" startedHalts="19.00" meanVehicleNumber="6.18" maxVehicleNumber="9" />
   <interval begin="22500.00" end="22600.00" id="e2_L40273_0_4" sampledSeconds="452.83" nVehEntered="39" nVehLeft="33" nVehSeen="41" meanSpeed="2.71" meanTimeLoss="8.64" meanOccupancy="32.73" maxOccupancy="57.70" meanMaxJamLengthInVehicles="2.66" meanMaxJamLengthInMeters="16.81" maxJamLengthInVehicles="7" maxJamLengthInMeters="46.58" jamLengthInVehiclesSum="266" jamLengthInMetersSum="1681.08" meanHaltingDuration="18.53" maxHaltingDuration="56.00" haltingDurationSum="278.00" meanIntervalHaltingDuration="18.47" maxIntervalHaltingDuration="56.00" intervalHaltingDurationSum="277.00" startedHalts="19.00" meanVehicleNumber="4.74" maxVehicleNumber="8" />
   <interval begin="22600.00" end="22700.00" id="e2_L40273_0_4" sampledSeconds="470.98" nVehEntered="23" nVehLeft="29" nVehSeen="31" meanSpeed="2.20" meanTimeLoss="12.50" meanOccupancy="33.17" maxOccupancy="65.09" meanMaxJamLengthInVehicles="2.78" meanMaxJamLengthInMeters="18.36" maxJamLengthInVehicles="9" maxJamLengthInMeters="60.55" jamLengthInVehiclesSum="278" jamLengthInMetersSum="1836.24" meanHaltingDuration="25.65" maxHaltingDuration="83.00" haltingDurationSum="436.00" meanIntervalHaltingDuration="14.94" maxIntervalHaltingDuration="38.00" intervalHaltingDurationSum="254.00" startedHalts="17.00" meanVehicleNumber="4.84" maxVehicleNumber="10" />
   <interval begin="22700.00" end="22800.00" id="e2_L40273_0_4" sampledSeconds="484.70" nVehEntered="22" nVehLeft="20" nVehSeen="24" meanSpeed="1.54" meanTimeLoss="17.70" meanOccupancy="35.05" maxOccupancy="51.25" meanMaxJamLengthInVehicles="3.53" meanMaxJamLengthInMeters="22.43" maxJamLengthInVehicles="6" maxJamLengthInMeters="40.86" jamLengthInVehiclesSum="353" jamLengthInMetersSum="2243.46" meanHaltingDuration="44.62" maxHaltingDuration="95.00" haltingDurationSum="357.00" meanIntervalHaltingDuration="43.88" maxIntervalHaltingDuration="89.00" intervalHaltingDurationSum="351.00" startedHalts="13.00" meanVehicleNumber="4.98" maxVehicleNumber="8" />
   <interval begin="22800.00" end="22900.00" id="e2_L40273_0_4" sampledSeconds="230.00" nVehEntered="22" nVehLeft="22" nVehSeen="26" meanSpeed="4.81" meanTimeLoss="5.37" meanOccupancy="16.47" maxOccupancy="36.06" meanMaxJamLengthInVehicles="0.80" meanMaxJamLengthInMeters="4.57" maxJamLengthInVehicles="3" maxJamLengthInMeters="19.97" jamLengthInVehiclesSum="80" jamLengthInMetersSum="456.52" meanHaltingDuration="7.08" maxHaltingDuration="33.00" haltingDurationSum="85.00" meanIntervalHaltingDuration="7.08" maxIntervalHaltingDuration="33.00" intervalHaltingDurationSum="85.00" startedHalts="14.00" meanVehicleNumber="2.42" maxVehicleNumber="5" />
   <interval begin="22900.00" end="23000.00" id="e2_L40273_0_4" sampledSeconds="369.50" nVehEntered="23" nVehLeft="26" nVehSeen="27" meanSpeed="2.53" meanTimeLoss="10.92" meanOccupancy="26.39" maxOccupancy="50.48" meanMaxJamLengthInVehicles="2.30" meanMaxJamLengthInMeters="14.91" maxJamLengthInVehicles="6" maxJamLengthInMeters="40.28" jamLengthInVehiclesSum="230" jamLengthInMetersSum="1490.88" meanHaltingDuration="29.40" maxHaltingDuration="78.00" haltingDurationSum="294.00" meanIntervalHaltingDuration="23.20" maxIntervalHaltingDuration="48.00" intervalHaltingDurationSum="232.00" startedHalts="11.00" meanVehicleNumber="3.86" maxVehicleNumber="7" />
   <interval begin="23000.00" end="23100.00" id="e2_L40273_0_4" sampledSeconds="265.87" nVehEntered="23" nVehLeft="19" nVehSeen="24" meanSpeed="3.62" meanTimeLoss="7.87" meanOccupancy="18.78" maxOccupancy="36.06" meanMaxJamLengthInVehicles="1.56" meanMaxJamLengthInMeters="9.00" maxJamLengthInVehicles="4" maxJamLengthInMeters="25.76" jamLengthInVehiclesSum="156" jamLengthInMetersSum="899.92" meanHaltingDuration="34.50" maxHaltingDuration="55.00" haltingDurationSum="138.00" meanIntervalHaltingDuration="34.50" maxIntervalHaltingDuration="55.00" intervalHaltingDurationSum="138.00" startedHalts="5.00" meanVehicleNumber="2.79" maxVehicleNumber="5" />
   <interval begin="23100.00" end="23200.00" id="e2_L40273_0_4" sampledSeconds="218.07" nVehEntered="21" nVehLeft="23" nVehSeen="26" meanSpeed="5.14" meanTimeLoss="4.94" meanOccupancy="14.64" maxOccupancy="38.06" meanMaxJamLengthInVehicles="0.76" meanMaxJamLengthInMeters="4.27" maxJamLengthInVehicles="4" maxJamLengthInMeters="27.82" jamLengthInVehiclesSum="76" jamLengthInMetersSum="427.08" meanHaltingDuration="14.71" maxHaltingDuration="59.00" haltingDurationSum="206.00" meanIntervalHaltingDuration="5.64" maxIntervalHaltingDuration="16.00" intervalHaltingDurationSum="79.00" startedHalts="11.00" meanVehicleNumber="2.33" maxVehicleNumber="6" />
   <interval begin="23200.00" end="23300.00" id="e2_L40273_0_4" sampledSeconds="425.51" nVehEntered="24" nVehLeft="25" nVehSeen="27" meanSpeed="2.42" meanTimeLoss="12.71" meanOccupancy="28.05" maxOccupancy="48.00" meanMaxJamLengthInVehicles="2.77" meanMaxJamLengthInMeters="17.89" maxJamLengthInVehicles="6" maxJamLengthInMeters="43.06" jamLengthInVehiclesSum="282" jamLengthInMetersSum="1816.12" meanHaltingDuration="30.10" maxHaltingDuration="72.00" haltingDurationSum="301.00" meanIntervalHaltingDuration="27.80" maxIntervalHaltingDuration="61.00" intervalHaltingDurationSum="278.00" startedHalts="15.00" meanVehicleNumber="4.44" maxVehicleNumber="8" />
   <interval begin="23300.00" end="23400.00" id="e2_L40273_0_4" sampledSeconds="201.36" nVehEntered="23" nVehLeft="20" nVehSeen="25" meanSpeed="5.94" meanTimeLoss="4.23" meanOccupancy="12.89" maxOccupancy="38.58" meanMaxJamLengthInVehicles="0.70" meanMaxJamLengthInMeters="3.79" maxJamLengthInVehicles="4" maxJamLengthInMeters="25.60" jamLengthInVehiclesSum="70" jamLengthInMetersSum="378.80" meanHaltingDuration="15.00" maxHaltingDuration="34.00" haltingDurationSum="75.00" meanIntervalHaltingDuration="15.00" maxIntervalHaltingDuration="34.00" intervalHaltingDurationSum="75.00" startedHalts="6.00" meanVehicleNumber="2.15" maxVehicleNumber="6" />
   <interval begin="23400.00" end="23500.00" id="e2_L40273_0_4" sampledSeconds="251.06" nVehEntered="23" nVehLeft="26" nVehSeen="28" meanSpeed="4.89" meanTimeLoss="5.46" meanOccupancy="16.98" maxOccupancy="43.27" meanMaxJamLengthInVehicles="1.07" meanMaxJamLengthInMeters="6.84" maxJamLengthInVehicles="5" maxJamLengthInMeters="32.61" jamLengthInVehiclesSum="108" jamLengthInMetersSum="688.20" meanHaltingDuration="15.11" maxHaltingDuration="42.00" haltingDurationSum="136.00" meanIntervalHaltingDuration="10.78" maxIntervalHaltingDuration="27.00" intervalHaltingDurationSum="97.00" startedHalts="9.00" meanVehicleNumber="2.70" maxVehicleNumber="6" />
   <interval begin="23500.00" end="23600.00" id="e2_L40273_0_4" sampledSeconds="268.91" nVehEntered="21" nVehLeft="19" nVehSeen="23" meanSpeed="3.10" meanTimeLoss="8.77" meanOccupancy="19.71" maxOccupancy="39.39" meanMaxJamLengthInVehicles="1.60" meanMaxJamLengthInMeters="9.77" maxJamLengthInVehicles="4" maxJamLengthInMeters="28.82" jamLengthInVehiclesSum="160" jamLengthInMetersSum="977.19" meanHaltingDuration="20.60" maxHaltingDuration="49.00" haltingDurationSum="103.00" meanIntervalHaltingDuration="20.60" maxIntervalHaltingDuration="49.00" intervalHaltingDurationSum="103.00" startedHalts="9.00" meanVehicleNumber="2.80" maxVehicleNumber="6" />
   <interval begin="23600.00" end="23700.00" id="e2_L40273_0_4" sampledSeconds="121.83" nVehEntered="19" nVehLeft="21" nVehSeen="23" meanSpeed="10.39" meanTimeLoss="0.89" meanOccupancy="8.41" maxOccupancy="28.85" meanMaxJamLengthInVehicles="0.00" meanMaxJamLengthInMeters="0.00" maxJamLengthInVehicles="0" maxJamLengthInMeters="0.00" jamLengthInVehiclesSum="0" jamLengthInMetersSum="0.00" meanHaltingDuration="1.67" maxHaltingDuration="3.00" haltingDurationSum="5.00" meanIntervalHaltingDuration="0.67" maxIntervalHaltingDuration="1.00" intervalHaltingDurationSum="2.00" startedHalts="2.00" meanVehicleNumber="1.41" maxVehicleNumber="4" />
   <interval begin="23700.00" end="23800.00" id="e2_L40273_0_4" sampledSeconds="165.70" nVehEntered="18" nVehLeft="19" nVehSeen="20" meanSpeed="6.08" meanTimeLoss="4.23" meanOccupancy="10.99" maxOccupancy="31.30" meanMaxJamLengthInVehicles="0.52" meanMaxJamLengthInMeters="3.08" maxJamLengthInVehicles="3" maxJamLengthInMeters="19.32" jamLengthInVehiclesSum="52" jamLengthInMetersSum="307.60" meanHaltingDuration="14.00" maxHaltingDuration="21.00" haltingDurationSum="56.00" meanIntervalHaltingDuration="14.00" maxIntervalHaltingDuration="21.00" intervalHaltingDurationSum="56.00" startedHalts="4.00" meanVehicleNumber="1.78" maxVehicleNumber="5" />
   <interval begin="23800.00" end="23900.00" id="e2_L40273_0_4" sampledSeconds="94.26" nVehEntered="17" nVehLeft="17" nVehSeen="18" meanSpeed="11.59" meanTimeLoss="0.38" meanOccupancy="6.41" maxOccupancy="19.49" meanMaxJamLengthInVehicles="0.00" meanMaxJamLengthInMeters="0.00" maxJamLengthInVehicles="0" maxJamLengthInMeters="0.00" jamLengthInVehiclesSum="0" jamLengthInMetersSum="0.00" meanHaltingDuration="0.00" maxHaltingDuration="0.00" haltingDurationSum="0.00" meanIntervalHaltingDuration="0.00" maxIntervalHaltingDuration="0.00" intervalHaltingDurationSum="0.00" startedHalts="0.00" meanVehicleNumber="1.13" maxVehicleNumber="3" />
   <interval begin="23900.00" end="24000.00" id="e2_L40273_0_4" sampledSeconds="117.38" nVehEntered="19" nVehLeft="19" nVehSeen="20" meanSpeed="11.57" meanTimeLoss="0.43" meanOccupancy="8.03" maxOccupancy="21.64" meanMaxJamLengthInVehicles="0.00" meanMaxJamLengthInMeters="0.00" maxJamLengthInVehicles="0" maxJamLengthInMeters="0.00" jamLengthInVehiclesSum="0" jamLengthInMetersSum="0.00" meanHaltingDuration="0.00" maxHaltingDuration="0.00" haltingDurationSum="0.00" meanIntervalHaltingDuration="0.00" maxIntervalHaltingDuration="0.00" intervalHaltingDurationSum="0.00" startedHalts="0.00" meanVehicleNumber="1.36" maxVehicleNumber="3" />
   <interval begin="24000.00" end="24100.00" id="e2_L40273_0_4" sampledSeconds="117.84" nVehEntered="19" nVehLeft="20" nVehSeen="20" meanSpeed="10.43" meanTimeLoss="0.96" meanOccupancy="7.87" maxOccupancy="21.64" meanMaxJamLengthInVehicles="0.03" meanMaxJamLengthInMeters="0.14" maxJamLengthInVehicles="1" maxJamLengthInMeters="4.62" jamLengthInVehiclesSum="3" jamLengthInMetersSum="13.86" meanHaltingDuration="4.00" maxHaltingDuration="4.00" haltingDurationSum="4.00" meanIntervalHaltingDuration="4.00" maxIntervalHaltingDuration="4.00" intervalHaltingDurationSum="4.00" startedHalts="1.00" meanVehicleNumber="1.30" maxVehicleNumber="3" />
   <interval begin="24100.00" end="24200.00" id="e2_L40273_0_4" sampledSeconds="106.68" nVehEntered="19" nVehLeft="18" nVehSeen="19" meanSpeed="11.79" meanTimeLoss="0.32" meanOccupancy="7.09" maxOccupancy="20.47" meanMaxJamLengthInVehicles="0.00" meanMaxJamLengthInMeters="0.00" maxJamLengthInVehicles="0" maxJamLengthInMeters="0.00" jamLengthInVehiclesSum="0" jamLengthInMetersSum="0.00" meanHaltingDuration="0.00" maxHaltingDuration="0.00" haltingDurationSum="0.00" meanIntervalHaltingDuration="0.00" maxIntervalHaltingDuration="0.00" intervalHaltingDurationSum="0.00" startedHalts="0.00" meanVehicleNumber="1.22" maxVehicleNumber="3" />
   <interval begin="24200.00" end="24300.00" id="e2_L40273_0_4" sampledSeconds="107.53" nVehEntered="18" nVehLeft="19" nVehSeen="19" meanSpeed="11.35" meanTimeLoss="0.50" meanOccupancy="7.07" maxOccupancy="16.08" meanMaxJamLengthInVehicles="0.00" meanMaxJamLengthInMeters="0.00" maxJamLengthInVehicles="0" maxJamLengthInMeters="0.00" jamLengthInVehiclesSum="0" jamLengthInMetersSum="0.00" meanHaltingDuration="0.00" maxHaltingDuration="0.00" haltingDurationSum="0.00" meanIntervalHaltingDuration="0.00" maxIntervalHaltingDuration="0.00" intervalHaltingDurationSum="0.00" startedHalts="0.00" meanVehicleNumber="1.22" maxVehicleNumber="3" />
   <interval begin="24300.00" end="24400.00" id="e2_L40273_0_4" sampledSeconds="392.90" nVehEntered="21" nVehLeft="14" nVehSeen="21" meanSpeed="1.99" meanTimeLoss="15.74" meanOccupancy="24.66" maxOccupancy="49.61" meanMaxJamLengthInVehicles="2.94" meanMaxJamLengthInMeters="18.47" maxJamLengthInVehicles="6" maxJamLengthInMeters="39.61" jamLengthInVehiclesSum="294" jamLengthInMetersSum="1846.53" meanHaltingDuration="50.00" maxHaltingDuration="86.00" haltingDurationSum="300.00" meanIntervalHaltingDuration="50.00" maxIntervalHaltingDuration="86.00" intervalHaltingDurationSum="300.00" startedHalts="6.00" meanVehicleNumber="4.05" maxVehicleNumber="8" />
   <interval begin="24400.00" end="24500.00" id="e2_L40273_0_4" sampledSeconds="404.48" nVehEntered="23" nVehLeft="30" nVehSeen="30" meanSpeed="2.79" meanTimeLoss="10.46" meanOccupancy="27.67" maxOccupancy="59.94" meanMaxJamLengthInVehicles="2.28" meanMaxJamLengthInMeters="15.27" maxJamLengthInVehicles="8" maxJamLengthInMeters="53.84" jamLengthInVehiclesSum="231" jamLengthInMetersSum="1543.74" meanHaltingDuration="38.07" maxHaltingDuration="109.00" haltingDurationSum="533.00" meanIntervalHaltingDuration="16.64" maxIntervalHaltingDuration="36.00" intervalHaltingDurationSum="233.00" startedHalts="12.00" meanVehicleNumber="4.23" maxVehicleNumber="9" />
   <interval begin="24500.00" end="24600.00" id="e2_L40273_0_4" sampledSeconds="157.59" nVehEntered="21" nVehLeft="18" nVehSeen="21" meanSpeed="7.69" meanTimeLoss="2.86" meanOccupancy="10.91" maxOccupancy="36.06" meanMaxJamLengthInVehicles="0.31" meanMaxJamLengthInMeters="1.70" maxJamLengthInVehicles="3" maxJamLengthInMeters="18.77" jamLengthInVehiclesSum="31" jamLengthInMetersSum="169.75" meanHaltingDuration="8.75" maxHaltingDuration="21.00" haltingDurationSum="35.00" meanIntervalHaltingDuration="8.75" maxIntervalHaltingDuration="21.00" intervalHaltingDurationSum="35.00" startedHalts="4.00" meanVehicleNumber="1.71" maxVehicleNumber="5" />
   <interval begin="24600.00" end="24700.00" id="e2_L40273_0_4" sampledSeconds="282.30" nVehEntered="19" nVehLeft="22" nVehSeen="22" meanSpeed="3.73" meanTimeLoss="8.99" meanOccupancy="20.16" maxOccupancy="43.27" meanMaxJamLengthInVehicles="1.54" meanMaxJamLengthInMeters="9.79" maxJamLengthInVehicles="4" maxJamLengthInMeters="27.77" jamLengthInVehiclesSum="154" jamLengthInMetersSum="978.84" meanHaltingDuration="16.75" maxHaltingDuration="49.00" haltingDurationSum="134.00" meanIntervalHaltingDuration="15.12" maxIntervalHaltingDuration="42.00" intervalHaltingDurationSum="121.00" startedHalts="7.00" meanVehicleNumber="2.99" maxVehicleNumber="6" />
   <interval begin="24700.00" end="24800.00" id="e2_L40273_0_4" sampledSeconds="127.03" nVehEntered="23" nVehLeft="20" nVehSeen="23" meanSpeed="11.14" meanTimeLoss="0.60" meanOccupancy="8.69" maxOccupancy="21.64" meanMaxJamLengthInVehicles="0.00" meanMaxJamLengthInMeters="0.00" maxJamLengthInVehicles="0" maxJamLengthInMeters="0.00" jamLengthInVehiclesSum="0" jamLengthInMetersSum="0.00" meanHaltingDuration="0.00" maxHaltingDuration="0.00" haltingDurationSum="0.00" meanIntervalHaltingDuration="0.00" maxIntervalHaltingDuration="0.00" intervalHaltingDurationSum="0.00" startedHalts="0.00" meanVehicleNumber="1.47" maxVehicleNumber="3" />
   <interval begin="24800.00" end="24900.00" id="e2_L40273_0_4" sampledSeconds="255.85" nVehEntered="20" nVehLeft="21" nVehSeen="23" meanSpeed="3.35" meanTimeLoss="8.15" meanOccupancy="18.51" maxOccupancy="43.27" meanMaxJamLengthInVehicles="1.43" meanMaxJamLengthInMeters="8.75" maxJamLengthInVehicles="4" maxJamLengthInMeters="27.41" jamLengthInVehiclesSum="143" jamLengthInMetersSum="875.24" meanHaltingDuration="24.83" maxHaltingDuration="53.00" haltingDurationSum="149.00" meanIntervalHaltingDuration="24.83" maxIntervalHaltingDuration="53.00" intervalHaltingDurationSum="149.00" startedHalts="6.00" meanVehicleNumber="2.69" maxVehicleNumber="7" />
   <interval begin="24900.00" end="25000.00" id="e2_L40273_0_4" sampledSeconds="132.78" nVehEntered="21" nVehLeft="23" nVehSeen="23" meanSpeed="11.31" meanTimeLoss="0.55" meanOccupancy="9.01" maxOccupancy="21.64" meanMaxJamLengthInVehicles="0.00" meanMaxJamLengthInMeters="0.00" maxJamLengthInVehicles="0" maxJamLengthInMeters="0.00" jamLengthInVehiclesSum="0" jamLengthInMetersSum="0.00" meanHaltingDuration="0.00" maxHaltingDuration="0.00" haltingDurationSum="0.00" meanIntervalHaltingDuration="0.00" maxIntervalHaltingDuration="0.00" intervalHaltingDurationSum="0.00" startedHalts="0.00" meanVehicleNumber="1.54" maxVehicleNumber="3" />
   <interval begin="25000.00" end="25100.00" id="e2_L40273_0_4" sampledSeconds="129.98" nVehEntered="22" nVehLeft="21" nVehSeen="22" meanSpeed="11.45" meanTimeLoss="0.45" meanOccupancy="8.72" maxOccupancy="21.64" meanMaxJamLengthInVehicles="0.00" meanMaxJamLengthInMeters="0.00" maxJamLengthInVehicles="0" maxJamLengthInMeters="0.00" jamLengthInVehiclesSum="0" jamLengthInMetersSum="0.00" meanHaltingDuration="0.00" maxHaltingDuration="0.00" haltingDurationSum="0.00" meanIntervalHaltingDuration="0.00" maxIntervalHaltingDuration="0.00" intervalHaltingDurationSum="0.00" startedHalts="0.00" meanVehicleNumber="1.48" maxVehicleNumber="3" />
   <interval begin="25100.00" end="25200.00" id="e2_L40273_0_4" sampledSeconds="113.11" nVehEntered="19" nVehLeft="20" nVehSeen="20" meanSpeed="11.12" meanTimeLoss="0.61" meanOccupancy="7.67" maxOccupancy="15.94" meanMaxJamLengthInVehicles="0.00" meanMaxJamLengthInMeters="0.00" maxJamLengthInVehicles="0" maxJamLengthInMeters="0.00" jamLengthInVehiclesSum="0" jamLengthInMetersSum="0.00" meanHaltingDuration="0.00" maxHaltingDuration="0.00" haltingDurationSum="0.00" meanIntervalHaltingDuration="0.00" maxIntervalHaltingDuration="0.00" intervalHaltingDurationSum="0.00" startedHalts="0.00" meanVehicleNumber="1.28" maxVehicleNumber="3" />
   <interval begin="25200.00" end="25300.00" id="e2_L40273_0_4" sampledSeconds="125.40" nVehEntered="22" nVehLeft="21" nVehSeen="22" meanSpeed="11.73" meanTimeLoss="0.33" meanOccupancy="8.46" maxOccupancy="21.64" meanMaxJamLengthInVehicles="0.00" meanMaxJamLengthInMeters="0.00" maxJamLengthInVehicles="0" maxJamLengthInMeters="0.00" jamLengthInVehiclesSum="0" jamLengthInMetersSum="0.00" meanHaltingDuration="0.00" maxHaltingDuration="0.00" haltingDurationSum="0.00" meanIntervalHaltingDuration="0.00" maxIntervalHaltingDuration="0.00" intervalHaltingDurationSum="0.00" startedHalts="0.00" meanVehicleNumber="1.49" maxVehicleNumber="3" />
   <interval begin="25300.00" end="25400.00" id="e2_L40273_0_4" sampledSeconds="103.88" nVehEntered="19" nVehLeft="18" nVehSeen="20" meanSpeed="11.42" meanTimeLoss="0.35" meanOccupancy="6.90" maxOccupancy="16.43" meanMaxJamLengthInVehicles="0.00" meanMaxJamLengthInMeters="0.00" maxJamLengthInVehicles="0" maxJamLengthInMeters="0.00" jamLengthInVehiclesSum="0" jamLengthInMetersSum="0.00" meanHaltingDuration="0.00" maxHaltingDuration="0.00" haltingDurationSum="0.00" meanIntervalHaltingDuration="0.00" maxIntervalHaltingDuration="0.00" intervalHaltingDurationSum="0.00" startedHalts="0.00" meanVehicleNumber="1.18" maxVehicleNumber="3" />
   <interval begin="25400.00" end="25500.00" id="e2_L40273_0_4" sampledSeconds="104.94" nVehEntered="18" nVehLeft="18" nVehSeen="20" meanSpeed="11.51" meanTimeLoss="0.38" meanOccupancy="7.18" maxOccupancy="21.64" meanMaxJamLengthInVehicles="0.00" meanMaxJamLengthInMeters="0.00" maxJamLengthInVehicles="0" maxJamLengthInMeters="0.00" jamLengthInVehiclesSum="0" jamLengthInMetersSum="0.00" meanHaltingDuration="0.00" maxHaltingDuration="0.00" haltingDurationSum="0.00" meanIntervalHaltingDuration="0.00" maxIntervalHaltingDuration="0.00" intervalHaltingDurationSum="0.00" startedHalts="0.00" meanVehicleNumber="1.22" maxVehicleNumber="3" />
   <interval begin="25500.00" end="25600.00" id="e2_L40273_0_4" sampledSeconds="281.78" nVehEntered="18" nVehLeft="14" nVehSeen="20" meanSpeed="2.94" meanTimeLoss="10.78" meanOccupancy="17.67" maxOccupancy="45.79" meanMaxJamLengthInVehicles="1.86" meanMaxJamLengthInMeters="11.33" maxJamLengthInVehicles="5" maxJamLengthInMeters="32.60" jamLengthInVehiclesSum="186" jamLengthInMetersSum="1133.13" meanHaltingDuration="38.20" maxHaltingDuration="59.00" haltingDurationSum="191.00" meanIntervalHaltingDuration="38.20" maxIntervalHaltingDuration="59.00" intervalHaltingDurationSum="191.00" startedHalts="5.00" meanVehicleNumber="2.91" maxVehicleNumber="7" />
   <interval begin="25600.00" end="25700.00" id="e2_L40273_0_4" sampledSeconds="562.22" nVehEntered="18" nVehLeft="23" nVehSeen="24" meanSpeed="1.05" meanTimeLoss="21.47" meanOccupancy="37.18" maxOccupancy="60.22" meanMaxJamLengthInVehicles="4.43" meanMaxJamLengthInMeters="29.27" maxJamLengthInVehicles="8" maxJamLengthInMeters="55.31" jamLengthInVehiclesSum="444" jamLengthInMetersSum="2930.88" meanHaltingDuration="51.60" maxHaltingDuration="114.00" haltingDurationSum="516.00" meanIntervalHaltingDuration="38.40" maxIntervalHaltingDuration="69.00" intervalHaltingDurationSum="384.00" startedHalts="10.00" meanVehicleNumber="5.75" maxVehicleNumber="9" />
   <interval begin="25700.00" end="25800.00" id="e2_L40273_0_4" sampledSeconds="196.52" nVehEntered="20" nVehLeft="16" nVehSeen="21" meanSpeed="5.19" meanTimeLoss="5.47" meanOccupancy="12.51" maxOccupancy="38.58" meanMaxJamLengthInVehicles="0.87" meanMaxJamLengthInMeters="5.18" maxJamLengthInVehicles="4" maxJamLengthInMeters="25.88" jamLengthInVehiclesSum="87" jamLengthInMetersSum="518.23" meanHaltingDuration="22.75" maxHaltingDuration="33.00" haltingDurationSum="91.00" meanIntervalHaltingDuration="22.75" maxIntervalHaltingDuration="33.00" intervalHaltingDurationSum="91.00" startedHalts="4.00" meanVehicleNumber="2.08" maxVehicleNumber="6" />
   <interval begin="25800.00" end="25900.00" id="e2_L40273_0_4" sampledSeconds="648.82" nVehEntered="17" nVehLeft="13" nVehSeen="22" meanSpeed="0.43" meanTimeLoss="28.47" meanOccupancy="42.45" maxOccupancy="59.34" meanMaxJamLengthInVehicles="6.01" meanMaxJamLengthInMeters="39.65" maxJamLengthInVehicles="8" maxJamLengthInMeters="53.56" jamLengthInVehiclesSum="601" jamLengthInMetersSum="3965.05" meanHaltingDuration="87.00" maxHaltingDuration="133.00" haltingDurationSum="696.00" meanIntervalHaltingDuration="75.62" maxIntervalHaltingDuration="100.00" intervalHaltingDurationSum="605.00" startedHalts="6.00" meanVehicleNumber="6.57" maxVehicleNumber="9" />