<?xml version="1.0" encoding="UTF-8"?>

<!-- generated on Sun Feb 17 15:57:00 2019 by 
<configuration xmlns:xsi="http://www.w3.org/2001/XMLSchema-instance" xsi:noNamespaceSchemaLocation="http://sumo.dlr.de/xsd/Configuration.xsd">

    <input>
        <net-file value="/home/sda/Documents/sumo-sathorn-ray/models/sathorn-morning/sathorn_w_fixed_20160404.net.xml"/>
        <route-files value="/home/sda/Documents/sumo-sathorn-ray/models/sathorn-morning/Great-route/sathorn_w_20160422edit2.rou.xml"/>
        <additional-files value="/home/sda/Documents/sumo-sathorn-ray/models/sathorn-morning/sathon_wide_tls_20160418_edited.add.xml,/home/sda/Documents/sumo-sathorn-ray/detectors/sathorn_w_detectors.add.xml"/>
    </input>

    <time>
        <begin value="21600"/>
        <end value="32400"/>
        <step-length value="1"/>
    </time>

    <processing>
        <no-internal-links value="true"/>
        <ignore-junction-blocker value="-1"/>
        <time-to-teleport value="-1"/>
        <eager-insert value="true"/>
        <time-to-impatience value="300"/>
    </processing>

    <report>
        <no-warnings value="true"/>
    </report>

    <random_number>
        <random value="false"/>
        <seed value="20"/>
    </random_number>

    <gui_only>
        <gui-settings-file value="/home/sda/Documents/sumo-sathorn-ray/gui-settings/gui-settings-file-surasak.xml"/>
        <quit-on-end value="true"/>
        <start value="true"/>
        <tracker-interval value="1"/>
    </gui_only>

</configuration>
-->

<detector xmlns:xsi="http://www.w3.org/2001/XMLSchema-instance" xsi:noNamespaceSchemaLocation="http://sumo.dlr.de/xsd/det_e2_file.xsd">
   <interval begin="21600.00" end="21700.00" id="e2_L193#2_0_1" sampledSeconds="0.00" nVehEntered="0" nVehLeft="0" nVehSeen="0" meanSpeed="-1.00" meanTimeLoss="-1.00" meanOccupancy="0.00" maxOccupancy="0.00" meanMaxJamLengthInVehicles="0.00" meanMaxJamLengthInMeters="0.00" maxJamLengthInVehicles="0" maxJamLengthInMeters="0.00" jamLengthInVehiclesSum="0" jamLengthInMetersSum="0.00" meanHaltingDuration="0.00" maxHaltingDuration="0.00" haltingDurationSum="0.00" meanIntervalHaltingDuration="0.00" maxIntervalHaltingDuration="0.00" intervalHaltingDurationSum="0.00" startedHalts="0.00" meanVehicleNumber="0.00" maxVehicleNumber="0" />
   <interval begin="21700.00" end="21800.00" id="e2_L193#2_0_1" sampledSeconds="0.00" nVehEntered="0" nVehLeft="0" nVehSeen="0" meanSpeed="-1.00" meanTimeLoss="-1.00" meanOccupancy="0.00" maxOccupancy="0.00" meanMaxJamLengthInVehicles="0.00" meanMaxJamLengthInMeters="0.00" maxJamLengthInVehicles="0" maxJamLengthInMeters="0.00" jamLengthInVehiclesSum="0" jamLengthInMetersSum="0.00" meanHaltingDuration="0.00" maxHaltingDuration="0.00" haltingDurationSum="0.00" meanIntervalHaltingDuration="0.00" maxIntervalHaltingDuration="0.00" intervalHaltingDurationSum="0.00" startedHalts="0.00" meanVehicleNumber="0.00" maxVehicleNumber="0" />
   <interval begin="21800.00" end="21900.00" id="e2_L193#2_0_1" sampledSeconds="109.88" nVehEntered="14" nVehLeft="12" nVehSeen="14" meanSpeed="11.05" meanTimeLoss="0.91" meanOccupancy="5.13" maxOccupancy="22.58" meanMaxJamLengthInVehicles="0.00" meanMaxJamLengthInMeters="0.00" maxJamLengthInVehicles="0" maxJamLengthInMeters="0.00" jamLengthInVehiclesSum="0" jamLengthInMetersSum="0.00" meanHaltingDuration="0.00" maxHaltingDuration="0.00" haltingDurationSum="0.00" meanIntervalHaltingDuration="0.00" maxIntervalHaltingDuration="0.00" intervalHaltingDurationSum="0.00" startedHalts="0.00" meanVehicleNumber="1.24" maxVehicleNumber="5" />
   <interval begin="21900.00" end="22000.00" id="e2_L193#2_0_1" sampledSeconds="178.10" nVehEntered="22" nVehLeft="21" nVehSeen="24" meanSpeed="11.43" meanTimeLoss="0.58" meanOccupancy="8.08" maxOccupancy="18.75" meanMaxJamLengthInVehicles="0.00" meanMaxJamLengthInMeters="0.00" maxJamLengthInVehicles="0" maxJamLengthInMeters="0.00" jamLengthInVehiclesSum="0" jamLengthInMetersSum="0.00" meanHaltingDuration="0.00" maxHaltingDuration="0.00" haltingDurationSum="0.00" meanIntervalHaltingDuration="0.00" maxIntervalHaltingDuration="0.00" intervalHaltingDurationSum="0.00" startedHalts="0.00" meanVehicleNumber="1.98" maxVehicleNumber="5" />
   <interval begin="22000.00" end="22100.00" id="e2_L193#2_0_1" sampledSeconds="182.13" nVehEntered="23" nVehLeft="23" nVehSeen="26" meanSpeed="11.70" meanTimeLoss="0.43" meanOccupancy="8.19" maxOccupancy="18.75" meanMaxJamLengthInVehicles="0.00" meanMaxJamLengthInMeters="0.00" maxJamLengthInVehicles="0" maxJamLengthInMeters="0.00" jamLengthInVehiclesSum="0" jamLengthInMetersSum="0.00" meanHaltingDuration="0.00" maxHaltingDuration="0.00" haltingDurationSum="0.00" meanIntervalHaltingDuration="0.00" maxIntervalHaltingDuration="0.00" intervalHaltingDurationSum="0.00" startedHalts="0.00" meanVehicleNumber="1.97" maxVehicleNumber="4" />
   <interval begin="22100.00" end="22200.00" id="e2_L193#2_0_1" sampledSeconds="229.60" nVehEntered="22" nVehLeft="25" nVehSeen="25" meanSpeed="10.22" meanTimeLoss="1.68" meanOccupancy="10.26" maxOccupancy="21.12" meanMaxJamLengthInVehicles="0.00" meanMaxJamLengthInMeters="0.00" maxJamLengthInVehicles="0" maxJamLengthInMeters="0.00" jamLengthInVehiclesSum="0" jamLengthInMetersSum="0.00" meanHaltingDuration="1.00" maxHaltingDuration="1.00" haltingDurationSum="2.00" meanIntervalHaltingDuration="1.00" maxIntervalHaltingDuration="1.00" intervalHaltingDurationSum="2.00" startedHalts="2.00" meanVehicleNumber="2.49" maxVehicleNumber="5" />
   <interval begin="22200.00" end="22300.00" id="e2_L193#2_0_1" sampledSeconds="332.48" nVehEntered="30" nVehLeft="22" nVehSeen="30" meanSpeed="7.43" meanTimeLoss="4.46" meanOccupancy="15.43" maxOccupancy="42.58" meanMaxJamLengthInVehicles="0.84" meanMaxJamLengthInMeters="5.32" maxJamLengthInVehicles="7" maxJamLengthInMeters="47.13" jamLengthInVehiclesSum="84" jamLengthInMetersSum="532.46" meanHaltingDuration="9.86" maxHaltingDuration="22.00" haltingDurationSum="69.00" meanIntervalHaltingDuration="9.86" maxIntervalHaltingDuration="22.00" intervalHaltingDurationSum="69.00" startedHalts="8.00" meanVehicleNumber="3.54" maxVehicleNumber="10" />
   <interval begin="22300.00" end="22400.00" id="e2_L193#2_0_1" sampledSeconds="800.86" nVehEntered="16" nVehLeft="13" nVehSeen="24" meanSpeed="0.71" meanTimeLoss="31.47" meanOccupancy="37.81" maxOccupancy="51.41" meanMaxJamLengthInVehicles="6.83" meanMaxJamLengthInMeters="47.05" maxJamLengthInVehicles="10" maxJamLengthInMeters="72.45" jamLengthInVehiclesSum="714" jamLengthInMetersSum="4906.49" meanHaltingDuration="30.48" maxHaltingDuration="97.00" haltingDurationSum="762.00" meanIntervalHaltingDuration="28.64" maxIntervalHaltingDuration="85.00" intervalHaltingDurationSum="716.00" startedHalts="21.00" meanVehicleNumber="8.09" maxVehicleNumber="11" />
   <interval begin="22400.00" end="22500.00" id="e2_L193#2_0_1" sampledSeconds="1442.89" nVehEntered="8" nVehLeft="4" nVehSeen="19" meanSpeed="0.08" meanTimeLoss="75.48" meanOccupancy="64.54" maxOccupancy="66.14" meanMaxJamLengthInVehicles="14.20" meanMaxJamLengthInMeters="94.07" maxJamLengthInVehicles="15" maxJamLengthInMeters="98.39" jamLengthInVehiclesSum="1420" jamLengthInMetersSum="9407.03" meanHaltingDuration="101.47" maxHaltingDuration="116.00" haltingDurationSum="1522.00" meanIntervalHaltingDuration="95.00" maxIntervalHaltingDuration="100.00" intervalHaltingDurationSum="1425.00" startedHalts="6.00" meanVehicleNumber="14.46" maxVehicleNumber="15" />
   <interval begin="22500.00" end="22600.00" id="e2_L193#2_0_1" sampledSeconds="1500.00" nVehEntered="0" nVehLeft="0" nVehSeen="15" meanSpeed="0.00" meanTimeLoss="100.00" meanOccupancy="66.14" maxOccupancy="66.14" meanMaxJamLengthInVehicles="15.00" meanMaxJamLengthInMeters="98.39" maxJamLengthInVehicles="15" maxJamLengthInMeters="98.39" jamLengthInVehiclesSum="1500" jamLengthInMetersSum="9838.67" meanHaltingDuration="201.47" maxHaltingDuration="216.00" haltingDurationSum="3022.00" meanIntervalHaltingDuration="100.00" maxIntervalHaltingDuration="100.00" intervalHaltingDurationSum="1500.00" startedHalts="0.00" meanVehicleNumber="15.00" maxVehicleNumber="15" />
   <interval begin="22600.00" end="22700.00" id="e2_L193#2_0_1" sampledSeconds="1500.00" nVehEntered="0" nVehLeft="0" nVehSeen="15" meanSpeed="0.00" meanTimeLoss="100.00" meanOccupancy="66.14" maxOccupancy="66.14" meanMaxJamLengthInVehicles="15.00" meanMaxJamLengthInMeters="98.39" maxJamLengthInVehicles="15" maxJamLengthInMeters="98.39" jamLengthInVehiclesSum="1500" jamLengthInMetersSum="9838.67" meanHaltingDuration="301.47" maxHaltingDuration="316.00" haltingDurationSum="4522.00" meanIntervalHaltingDuration="100.00" maxIntervalHaltingDuration="100.00" intervalHaltingDurationSum="1500.00" startedHalts="0.00" meanVehicleNumber="15.00" maxVehicleNumber="15" />
   <interval begin="22700.00" end="22800.00" id="e2_L193#2_0_1" sampledSeconds="1500.00" nVehEntered="0" nVehLeft="0" nVehSeen="15" meanSpeed="0.00" meanTimeLoss="100.00" meanOccupancy="66.14" maxOccupancy="66.14" meanMaxJamLengthInVehicles="15.00" meanMaxJamLengthInMeters="98.39" maxJamLengthInVehicles="15" maxJamLengthInMeters="98.39" jamLengthInVehiclesSum="1500" jamLengthInMetersSum="9838.67" meanHaltingDuration="401.47" maxHaltingDuration="416.00" haltingDurationSum="6022.00" meanIntervalHaltingDuration="100.00" maxIntervalHaltingDuration="100.00" intervalHaltingDurationSum="1500.00" startedHalts="0.00" meanVehicleNumber="15.00" maxVehicleNumber="15" />
   <interval begin="22800.00" end="22900.00" id="e2_L193#2_0_1" sampledSeconds="1500.00" nVehEntered="0" nVehLeft="0" nVehSeen="15" meanSpeed="0.00" meanTimeLoss="100.00" meanOccupancy="66.14" maxOccupancy="66.14" meanMaxJamLengthInVehicles="15.00