<?xml version="1.0" encoding="UTF-8"?>

<!-- generated on Sun Feb 17 15:57:00 2019 by 
<configuration xmlns:xsi="http://www.w3.org/2001/XMLSchema-instance" xsi:noNamespaceSchemaLocation="http://sumo.dlr.de/xsd/Configuration.xsd">

    <input>
        <net-file value="/home/sda/Documents/sumo-sathorn-ray/models/sathorn-morning/sathorn_w_fixed_20160404.net.xml"/>
        <route-files value="/home/sda/Documents/sumo-sathorn-ray/models/sathorn-morning/Great-route/sathorn_w_20160422edit2.rou.xml"/>
        <additional-files value="/home/sda/Documents/sumo-sathorn-ray/models/sathorn-morning/sathon_wide_tls_20160418_edited.add.xml,/home/sda/Documents/sumo-sathorn-ray/detectors/sathorn_w_detectors.add.xml"/>
    </input>

    <time>
        <begin value="21600"/>
        <end value="32400"/>
        <step-length value="1"/>
    </time>

    <processing>
        <no-internal-links value="true"/>
        <ignore-junction-blocker value="-1"/>
        <time-to-teleport value="-1"/>
        <eager-insert value="true"/>
        <time-to-impatience value="300"/>
    </processing>

    <report>
        <no-warnings value="true"/>
    </report>

    <random_number>
        <random value="false"/>
        <seed value="20"/>
    </random_number>

    <gui_only>
        <gui-settings-file value="/home/sda/Documents/sumo-sathorn-ray/gui-settings/gui-settings-file-surasak.xml"/>
        <quit-on-end value="true"/>
        <start value="true"/>
        <tracker-interval value="1"/>
    </gui_only>

</configuration>
-->

<detector xmlns:xsi="http://www.w3.org/2001/XMLSchema-instance" xsi:noNamespaceSchemaLocation="http://sumo.dlr.de/xsd/det_e2_file.xsd">
   <interval begin="21600.00" end="21700.00" id="e2_L237_1_3" sampledSeconds="0.00" nVehEntered="0" nVehLeft="0" nVehSeen="0" meanSpeed="-1.00" meanTimeLoss="-1.00" meanOccupancy="0.00" maxOccupancy="0.00" meanMaxJamLengthInVehicles="0.00" meanMaxJamLengthInMeters="0.00" maxJamLengthInVehicles="0" maxJamLengthInMeters="0.00" jamLengthInVehiclesSum="0" jamLengthInMetersSum="0.00" meanHaltingDuration="0.00" maxHaltingDuration="0.00" haltingDurationSum="0.00" meanIntervalHaltingDuration="0.00" maxIntervalHaltingDuration="0.00" intervalHaltingDurationSum="0.00" startedHalts="0.00" meanVehicleNumber="0.00" maxVehicleNumber="0" />
   <interval begin="21700.00" end="21800.00" id="e2_L237_1_3" sampledSeconds="0.00" nVehEntered="0" nVehLeft="0" nVehSeen="0" meanSpeed="-1.00" meanTimeLoss="-1.00" meanOccupancy="0.00" maxOccupancy="0.00" meanMaxJamLengthInVehicles="0.00" meanMaxJamLengthInMeters="0.00" maxJamLengthInVehicles="0" maxJamLengthInMeters="0.00" jamLengthInVehiclesSum="0" jamLengthInMetersSum="0.00" meanHaltingDuration="0.00" maxHaltingDuration="0.00" haltingDurationSum="0.00" meanIntervalHaltingDuration="0.00" maxIntervalHaltingDuration="0.00" intervalHaltingDurationSum="0.00" startedHalts="0.00" meanVehicleNumber="0.00" maxVehicleNumber="0" />
   <interval begin="21800.00" end="21900.00" id="e2_L237_1_3" sampledSeconds="0.00" nVehEntered="0" nVehLeft="0" nVehSeen="0" meanSpeed="-1.00" meanTimeLoss="-1.00" meanOccupancy="0.00" maxOccupancy="0.00" meanMaxJamLengthInVehicles="0.00" meanMaxJamLengthInMeters="0.00" maxJamLengthInVehicles="0" maxJamLengthInMeters="0.00" jamLengthInVehiclesSum="0" jamLengthInMetersSum="0.00" meanHaltingDuration="0.00" maxHaltingDuration="0.00" haltingDurationSum="0.00" meanIntervalHaltingDuration="0.00" maxIntervalHaltingDuration="0.00" intervalHaltingDurationSum="0.00" startedHalts="0.00" meanVehicleNumber="0.00" maxVehicleNumber="0" />
   <interval begin="21900.00" end="22000.00" id="e2_L237_1_3" sampledSeconds="2.40" nVehEntered="2" nVehLeft="2" nVehSeen="2" meanSpeed="11.51" meanTimeLoss="0.10" meanOccupancy="0.15" maxOccupancy="14.62" meanMaxJamLengthInVehicles="0.00" meanMaxJamLengthInMeters="0.00" maxJamLengthInVehicles="0" maxJamLengthInMeters="0.00" jamLengthInVehiclesSum="0" jamLengthInMetersSum="0.00" meanHaltingDuration="0.00" maxHaltingDuration="0.00" haltingDurationSum="0.00" meanIntervalHaltingDuration="0.00" maxIntervalHaltingDuration="0.00" intervalHaltingDurationSum="0.00" startedHalts="0.00" meanVehicleNumber="0.03" maxVehicleNumber="1" />
   <interval begin="22000.00" end="22100.00" id="e2_L237_1_3" sampledSeconds="2.66" nVehEntered="1" nVehLeft="1" nVehSeen="1" meanSpeed="9.96" meanTimeLoss="0.54" meanOccupancy="0.29" maxOccupancy="14.62" meanMaxJamLengthInVehicles="0.00" meanMaxJamLengthInMeters="0.00" maxJamLengthInVehicles="0" maxJamLengthInMeters="0.00" jamLengthInVehiclesSum="0" jamLengthInMetersSum="0.00" meanHaltingDuration="0.00" maxHaltingDuration="0.00" haltingDurationSum="0.00" meanIntervalHaltingDuration="0.00" maxIntervalHaltingDuration="0.00" intervalHaltingDurationSum="0.00" startedHalts="0.00" meanVehicleNumber="0.03" maxVehicleNumber="1" />
   <interval begin="22100.00" end="22200.00" id="e2_L237_1_3" sampledSeconds="5.56" nVehEntered="2" nVehLeft="2" nVehSeen="2" meanSpeed="9.48" meanTimeLoss="0.67" meanOccupancy="0.58" maxOccupancy="14.62" meanMaxJamLengthInVehicles="0.00" meanMaxJamLengthInMeters="0.00" maxJamLengthInVehicles="0" maxJamLengthInMeters="0.00" jamLengthInVehiclesSum="0" jamLengthInMetersSum="0.00" meanHaltingDuration="0.00" maxHaltingDuration="0.00" haltingDurationSum="0.00" meanIntervalHaltingDuration="0.00" maxIntervalHaltingDuration="0.00" intervalHaltingDurationSum="0.00" startedHalts="0.00" meanVehicleNumber="0.06" maxVehicleNumber="1" />
   <interval begin="22200.00" end="22300.00" id="e2_L237_1_3" sampledSeconds="5.41" nVehEntered="3" nVehLeft="3" nVehSeen="3" meanSpeed="11.10" meanTimeLoss="0.20" meanOccupancy="0.44" maxOccupancy="14.62" meanMaxJamLengthInVehicles="0.00" meanMaxJamLengthInMeters="0.00" maxJamLengthInVehicles="0" maxJamLengthInMeters="0.00" jamLengthInVehiclesSum="0" jamLengthInMetersSum="0.00" meanHaltingDuration="0.00" maxHaltingDuration="0.00" haltingDurationSum="0.00" meanIntervalHaltingDuration="0.00" maxIntervalHaltingDuration="0.00" intervalHaltingDurationSum="0.00" startedHalts="0.00" meanVehicleNumber="0.06" maxVehicleNumber="1" />
   <interval begin="22300.00" end="22400.00" id="e2_L237_1_3" sampledSeconds="4.95" nVehEntered="2" nVehLeft="2" nVehSeen="2" meanSpeed="9.91" meanTimeLoss="0.51" meanOccupancy="0.51" maxOccupancy="14.62" meanMaxJamLengthInVehicles="0.00" meanMaxJamLengthInMeters="0.00" maxJamLengthInVehicles="0" maxJamLengthInMeters="0.00" jamLengthInVehiclesSum="0" jamLengthInMetersSum="0.00" meanHaltingDuration="0.00" maxHaltingDuration="0.00" haltingDurationSum="0.00" meanIntervalHaltingDuration="0.00" maxIntervalHaltingDuration="0.00" intervalHaltingDurationSum="0.00" startedHalts="0.00" meanVehicleNumber="0.06" maxVehicleNumber="1" />
   <interval begin="22400.00" end="22500.00" id="e2_L237_1_3" sampledSeconds="0.00" nVehEntered="0" nVehLeft="0" nVehSeen="0" meanSpeed="-1.00" meanTimeLoss="-1.00" meanOccupancy="0.00" maxOccupancy="0.00" meanMaxJamLengthInVehicles="0.00" meanMaxJamLengthInMeters="0.00" maxJamLengthInVehicles="0" maxJamLengthInMeters="0.00" jamLengthInVehiclesSum="0" jamLengthInMetersSum="0.00" meanHaltingDuration="0.00" maxHaltingDuration="0.00" haltingDurationSum="0.00" meanIntervalHaltingDuration="0.00" maxIntervalHaltingDuration="0.00" intervalHaltingDurationSum="0.00" startedHalts="0.00" meanVehicleNumber="0.00" maxVehicleNumber="0" />
   <interval begin="22500.00" end="22600.00" id="e2_L237_1_3" sampledSeconds="0.99" nVehEntered="1" nVehLeft="1" nVehSeen="1" meanSpeed="11.24" meanTimeLoss="0.10" meanOccupancy="0.00" maxOccupancy="0.00" meanMaxJamLengthInVehicles="0.00" meanMaxJamLengthInMeters="0.00" maxJamLengthInVehicles="0" maxJamLengthInMeters="0.00" jamLengthInVehiclesSum="0" jamLengthInMetersSum="0.00" meanHaltingDuration="0.00" maxHaltingDuration="0.00" haltingDurationSum="0.00" meanIntervalHaltingDuration="0.00" maxIntervalHaltingDuration="0.00" intervalHaltingDurationSum="0.00" startedHalts="0.00" meanVehicleNumber="0.01" maxVehicleNumber="1" />
   <interval begin="22600.00" end="22700.00" id="e2_L237_1_3" sampledSeconds="1.59" nVehEntered="1" nVehLeft="1" nVehSeen="1" meanSpeed="11.02" meanTimeLoss="0.19" meanOccupancy="0.15" maxOccupancy="14.62" meanMaxJamLengthInVehicles="0.00" meanMaxJamLengthInMeters="0.00" maxJamLengthInVehicles="0" maxJamLengthInMeters="0.00" jamLengthInVehiclesSum="0" jamLengthInMetersSum="0.00" meanHaltingDuration="0.00" maxHaltingDuration="0.00" haltingDurationSum="0.00" meanIntervalHaltingDuration="0.00" maxIntervalHaltingDuration="0.00" intervalHaltingDurationSum="0.00" startedHalts="0.00" meanVehicleNumber="0.02" maxVehicleNumber="1" />
   <interval begin="22700.00" end="22800.00" id="e2_L237_1_3" sampledSeconds="1.67" nVehEntered="1" nVehLeft="1" nVehSeen="1" meanSpeed="8.57" meanTimeLoss="0.53" meanOccupancy="0.15" maxOccupancy="14.62" meanMaxJamLengthInVehicles="0.00" meanMaxJamLengthInMeters="0.00" maxJamLengthInVehicles="0" maxJamLengthInMeters="0.00" jamLengthInVehiclesSum="0" jamLengthInMetersSum="0.00" meanHaltingDuration="0.00" maxHaltingDuration="0.00" haltingDurationSum="0.00" meanIntervalHaltingDuration="0.00" maxIntervalHaltingDuration="0.00" intervalHaltingDurationSum="0.00" startedHalts="0.00" meanVehicleNumber="0.02" maxVehicleNumber="1" />
   <interval begin="22800.00" end="22900.00" id="e2_L237_1_3" sampledSeconds="5.11" nVehEntered="3" nVehLeft="3" nVehSeen="3" meanSpeed="6.97" meanTimeLoss="0.75" meanOccupancy="0.47" maxOccupancy="14.62" meanMaxJamLengthInVehicles="0.00" meanMaxJamLengthInMeters="0.00" maxJamLengthInVehicles="0" maxJamLengthInMeters="0.00" jamLengthInVehiclesSum="0" jamLengthInMetersSum="0.00" meanHaltingDuration="0.00" maxHaltingDuration="0.00" haltingDurationSum="0.00" meanIntervalHaltingDuration="0.00" maxIntervalHaltingDuration="0.00" intervalHaltingDurationSum="0.00" startedHalts="0.00" meanVehicleNumber="0.06" maxVehicleNumber="1" />
   <interval begin="22900.00" end="23000.00" id="e2_L237_1_3" sampledSeconds="0.00" nVehEntered="0" nVehLeft="0" nVehSeen="0" meanSpeed="-1.00" meanTimeLoss="-1.00" meanOccupancy="0.00" maxOccupancy="0.00" meanMaxJamLengthInVehicles="0.00" meanMaxJamLengthInMeters="0.00" maxJamLengthInVehicles="0" maxJamLengthInMeters="0.00" jamLengthInVehiclesSum="0" jamLengthInMetersSum="0.00" meanHaltingDuration="0.00" maxHaltingDuration="0.00" haltingDurationSum="0.00" meanIntervalHaltingDuration="0.00" maxIntervalHaltingDuration="0.00" intervalHaltingDurationSum="0.00" startedHalts="0.00" meanVehicleNumber="0.00" maxVehicleNumber="0" />
   <interval begin="23000.00" end="23100.00" id="e2_L237_1_3" sampledSeconds="0.00" nVehEntered="0" nVehLeft="0" nVehSeen="0" meanSpeed="-1.00" meanTimeLoss="-1.00" meanOccupancy="0.00" maxOccupancy="0.00" meanMaxJamLengthInVehicles="0.00" meanMaxJamLengthInMeters="0.00" maxJamLengthInVehicles="0" maxJamLengthInMeters="0.00" jamLengthInVehiclesSum="0" jamLengthInMetersSum="0.00" meanHaltingDuration="0.00" maxHaltingDuration="0.00" haltingDurationSum="0.00" meanIntervalHaltingDuration="0.00" maxIntervalHaltingDuration="0.00" intervalHaltingDurationSum="0.00" startedHalts="0.00" meanVehicleNumber="0.00" maxVehicleNumber="0" />
   <interval begin="23100.00" end="23200.00" id="e2_L237_1_3" sampledSeconds="0.00" nVehEntered="0" nVehLeft="0" nVehSeen="0" meanSpeed="-1.00" meanTimeLoss="-1.00" meanOccupancy="0.00" maxOccupancy="0.00" meanMaxJamLengthInVehicles="0.00" meanMaxJamLengthInMeters="0.00" maxJamLengthInVehicles="0" maxJamLengthInMeters="0.00" jamLengthInVehiclesSum="0" jamLengthInMetersSum="0.00" meanHaltingDuration="0.00" maxHaltingDuration="0.00" haltingDurationSum="0.00" meanIntervalHaltingDuration="0.00" maxIntervalHaltingDuration="0.00" intervalHaltingDurationSum="0.00" startedHalts="0.00" meanVehicleNumber="0.00" maxVehicleNumber="0" />
   <interval begin="23200.00" end="23300.00" id="e2_L237_1_3" sampledSeconds="0.00" nVehEntered="0" nVehLeft="0" nVehSeen="0" meanSpeed="-1.00" meanTimeLoss="-1.00" meanOccupancy="0.00" maxOccupancy="0.00" meanMaxJamLengthInVehicles="0.00" meanMaxJamLengthInMeters="0.00" maxJamLengthInVehicles="0" maxJamLengthInMeters="0.00" jamLengthInVehiclesSum="0" jamLengthInMetersSum="0.00" meanHaltingDuration="0.00" maxHaltingDuration="0.00" haltingDurationSum="0.00" meanIntervalHaltingDuration="0.00" maxIntervalHaltingDuration="0.00" intervalHaltingDurationSum="0.00" startedHalts="0.00" meanVehicleNumber="0.00" maxVehicleNumber="0" />
   <interval begin="23300.00" end="23400.00" id="e2_L237_1_3" sampledSeconds="0.00" nVehEntered="0" nVehLeft="0" nVehSeen="0" meanSpeed="-1.00" meanTimeLoss="-1.00" meanOccupancy="0.00" maxOccupancy="0.00" meanMaxJamLengthInVehicles="0.00" meanMaxJamLengthInMeters="0.00" maxJamLengthInVehicles="0" maxJamLengthInMeters="0.00" jamLengthInVehiclesSum="0" jamLengthInMetersSum="0.00" meanHaltingDuration="0.00" maxHaltingDuration="0.00" haltingDurationSum="0.00" meanIntervalHaltingDuration="0.00" maxIntervalHaltingDuration="0.00" intervalHaltingDurationSum="0.00" startedHalts="0.00" meanVehicleNumber="0.00" maxVehicleNumber="0" />
   <interval begin="23400.00" end="23500.00" id="e2_L237_1_3" sampledSeconds="0.00" nVehEntered="0" nVehLeft="0" nVehSeen="0" meanSpeed="-1.00" meanTimeLoss="-1.00" meanOccupancy="0.00" maxOccupancy="0.00" meanMaxJamLengthInVehicles="0.00" meanMaxJamLengthInMeters="0.00" maxJamLengthInVehicles="0" maxJamLengthInMeters="0.00" jamLengthInVehiclesSum="0" jamLengthInMetersSum="0.00" meanHaltingDuration="0.00" maxHaltingDuration="0.00" haltingDurationSum="0.00" meanIntervalHaltingDuration="0.00" maxIntervalHaltingDuration="0.00" intervalHaltingDurationSum="0.00" startedHalts="0.00" meanVehicleNumber="0.00" maxVehicleNumber="0" />
   <interval begin="23500.00" end="23600.00" id="e2_L237_1_3" sampledSeconds="0.00" nVehEntered="0" nVehLeft="0" nVehSeen="0" meanSpeed="-1.00" meanTimeLoss="-1.00" meanOccupancy="0.00" maxOccupancy="0.00" meanMaxJamLengthInVehicles="0.00" meanMaxJamLengthInMeters="0.00" maxJamLengthInVehicles="0" maxJamLengthInMeters="0.00" jamLengthInVehiclesSum="0" jamLengthInMetersSum="0.00" meanHaltingDuration="0.00" maxHaltingDuration="0.00" haltingDurationSum="0.00" meanIntervalHaltingDuration="0.00" maxIntervalHaltingDuration="0.00" intervalHaltingDurationSum="0.00" startedHalts="0.00" meanVehicleNumber="0.00" maxVehicleNumber="0" />
   <interval begin="23600.00" end="23700.00" id="e2_L237_1_3" sampledSeconds="24.00" nVehEntered="1" nVehLeft="1" nVehSeen="1" meanSpeed="0.78" meanTimeLoss="22.50" meanOccupancy="3.40" maxOccupancy="14.62" meanMaxJamLengthInVehicles="0.17" meanMaxJamLengthInMeters="0.79" maxJamLengthInVehicles="1" maxJamLengthInMeters="4.62" jamLengthInVehiclesSum="17" jamLengthInMetersSum="78.54" meanHaltingDuration="0.00" maxHaltingDuration="0.00" haltingDurationSum="0.00" meanIntervalHaltingDuration="0.00" maxIntervalHaltingDuration="0.00" intervalHaltingDurationSum="0.00" startedHalts="1.00" meanVehicleNumber="0.24" maxVehicleNumber="1" />
   <interval begin="23700.00" end="23800.00" id="e2_L237_1_3" sampledSeconds="0.00" nVehEntered="0" nVehLeft="0" nVehSeen="0" meanSpeed="-1.00" meanTimeLoss="-1.00" meanOccupancy="0.00" maxOccupancy="0.00" meanMaxJamLengthInVehicles="0.00" meanMaxJamLengthInMeters="0.00" maxJamLengthInVehicles="0" maxJamLengthInMeters="0.00" jamLengthInVehiclesSum="0" jamLengthInMetersSum="0.00" meanHaltingDuration="0.00" maxHaltingDuration="0.00" haltingDurationSum="0.00" meanIntervalHaltingDuration="0.00" maxIntervalHaltingDuration="0.00" intervalHaltingDurationSum="0.00" startedHalts="0.00" meanVehicleNumber="0.00" maxVehicleNumber="0" />
   <interval begin="23800.00" end="23900.00" id="e2_L237_1_3" sampledSeconds="0.00" nVehEntered="0" nVehLeft="0" nVehSeen="0" meanSpeed="-1.00" meanTimeLoss="-1.00" meanOccupancy="0.00" maxOccupancy="0.00" meanMaxJamLengthInVehicles="0.00" meanMaxJamLengthInMeters="0.00" maxJamLengthInVehicles="0" maxJamLengthInMeters="0.00" jamLengthInVehiclesSum="0" jamLengthInMetersSum="0.00" meanHaltingDuration="0.00" maxHaltingDuration="0.00" haltingDurationSum="0.00" meanIntervalHaltingDuration="0.00" maxIntervalHaltingDuration="0.00" intervalHaltingDurationSum="0.00" startedHalts="0.00" meanVehicleNumber="0.00" maxVehicleNumber="0" />
   <interval begin="23900.00" end="24000.00" id="e2_L237_1_3" sampledSeconds="64.00" nVehEntered="2" nVehLeft="0" nVehSeen="2" meanSpeed="0.25" meanTimeLoss="31.35" meanOccupancy="9.36" maxOccupancy="29.25" meanMaxJamLengthInVehicles="0.57" meanMaxJamLengthInMeters="3.31" maxJamLengthInVehicles="2" maxJamLengthInMeters="12.09" jamLengthInVehiclesSum="57" jamLengthInMetersSum="331.04" meanHaltingDuration="20.00" maxHaltingDuration="30.00" haltingDurationSum="60.00" meanIntervalHaltingDuration="20.00" maxIntervalHaltingDuration="30.00" intervalHaltingDurationSum="60.00" startedHalts="3.00" meanVehicleNumber="0.64" maxVehicleNumber="2" />
   <interval begin="24000.00" end="24100.00" id="e2_L237_1_3" sampledSeconds="200.00" nVehEntered="0" nVehLeft="0" nVehSeen="2" meanSpeed="0.00" meanTimeLoss="100.00" meanOccupancy="29.25" maxOccupancy="29.25" meanMaxJamLengthInVehicles="2.00" meanMaxJamLengthInMeters="11.61" maxJamLengthInVehicles="2" maxJamLengthInMeters="11.61" jamLengthInVehiclesSum="200" jamLengthInMetersSum="1161.11" meanHaltingDuration="129.50" maxHaltingDuration="130.00" haltingDurationSum="259.00" meanIntervalHaltingDuration="100.00" maxIntervalHaltingDuration="100.00" intervalHaltingDurationSum="200.00" startedHalts="0.00" meanVehicleNumber="2.00" maxVehicleNumber="2" />
   <interval begin="24100.00" end="24200.00" id="e2_L237_1_3" sampledSeconds="200.00" nVehEntered="0" nVehLeft="0" nVehSeen="2" meanSpeed="0.00" meanTimeLoss="100.00" meanOccupancy="29.25" maxOccupancy="29.25" meanMaxJamLengthInVehicles="2.00" meanMaxJamLengthInMeters="11.61" maxJamLengthInVehicles="2" maxJamLengthInMeters="11.61" jamLengthInVehiclesSum="200" jamLengthInMetersSum="1161.10" meanHaltingDuration="229.50" maxHaltingDuration="230.00" haltingDurationSum="459.00" meanIntervalHaltingDuration="100.00" maxIntervalHaltingDuration="100.00" intervalHaltingDurationSum="200.00" startedHalts="0.00" meanVehicleNumber="2.00" maxVehicleNumber="2" />
   <interval begin="24200.00" end="24300.00" id="e2_L237_1_3" sampledSeconds="200.00" nVehEntered="0" nVehLeft="0" nVehSeen="2" meanSpeed="0.00" meanTimeLoss="100.00" meanOccupancy="29.25" maxOccupancy="29.25" meanMaxJamLengthInVehicles="2.00" meanMaxJamLengthInMeters="11.61" maxJamLengthInVehicles="2" maxJamLengthInMeters="11.61" jamLengthInVehiclesSum="200" jamLengthInMetersSum="1161.10" meanHaltingDuration="329.50" maxHaltingDuration="330.00" haltingDurationSum="659.00" meanIntervalHaltingDuration="100.00" maxIntervalHaltingDuration="100.00" intervalHaltingDurationSum="200.00" startedHalts="0.00" meanVehicleNumber="2.00" maxVehicleNumber="2" />
   <interval begin="24300.00" end="24400.00" id="e2_L237_1_3" sampledSeconds="200.00" nVehEntered="0" nVehLeft="0" nVehSeen="2" meanSpeed="0.00" meanTimeLoss="100.00" meanOccupancy="29.25" maxOccupancy="29.25" meanMaxJamLengthInVehicles="2.00" meanMaxJamLengthInMeters="11.61" maxJamLengthInVehicles="2" maxJamLengthInMeters="11.61" jamLengthInVehiclesSum="200" jamLengthInMetersSum="1161.10" meanHaltingDuration="429.50" maxHaltingDuration="430.00" haltingDurationSum="859.00" meanIntervalHaltingDuration="100.00" maxIntervalHaltingDuration="100.00" intervalHaltingDurationSum="200.00" startedHalts="0.00" meanVehicleNumber="2.00" maxVehicleNumber="2" />
   <interval begin="24400.00" end="24500.00" id="e2_L237_1_3" sampledSeconds="200.00" nVehEntered="0" nVehLeft="0" nVehSeen="2" meanSpeed="0.00" meanTimeLoss="100.00" meanOccupancy="29.25" maxOccupancy="29.25" meanMaxJamLengthInVehicles="2.00" meanMaxJamLengthInMeters="11.61" maxJamLengthInVehicles="2" maxJamLengthInMeters="11.61" jamLengthInVehiclesSum="200" jamLengthInMetersSum="1161.10" meanHaltingDuration="529.50" maxHaltingDuration="530.00" haltingDurationSum="1059.00" meanIntervalHaltingDuration="100.00" maxIntervalHaltingDuration="100.00" intervalHaltingDurationSum="200.00" startedHalts="0.00" meanVehicleNumber="2.00" maxVehicleNumber="2" />
   <interval begin="24500.00" end="24600.00" id="e2_L237_1_3" sampledSeconds="200.00" nVehEntered="0" nVehLeft="0" nVehSeen="2" meanSpeed="0.00" meanTimeLoss="100.00" meanOccupancy="29.25" maxOccupancy="29.25" meanMaxJamLengthInVehicles="2.00" meanMaxJamLengthInMeters="11.61" maxJamLengthInVehicles="2" maxJamLengthInMeters="11.61" jamLengthInVehiclesSum="200" jamLengthInMetersSum="1161.10" meanHaltingDuration="629.50" maxHaltingDuration="630.00" haltingDurationSum="1259.00" meanIntervalHaltingDuration="100.00" maxIntervalHaltingDuration="100.00" intervalHaltingDurationSum="200.00" startedHalts="0.00" meanVehicleNumber="2.00" maxVehicleNumber="2" />
   <interval begin="24600.00" end="24700.00" id="e2_L237_1_3" sampledSeconds="200.00" nVehEntered="0" nVehLeft="0" nVehSeen="2" meanSpeed="0.00" meanTimeLoss="100.00" meanOccupancy="29.25" maxOccupancy="29.25" meanMaxJamLengthInVehicles="2.00" meanMaxJamLengthInMeters="11.61" maxJamLengthInVehicles="2" maxJamLengthInMeters="11.61" jamLengthInVehiclesSum="200" jamLengthInMetersSum="1161.10" meanHaltingDuration="729.50" maxHaltingDuration="730.00" haltingDurationSum="1459.00" meanIntervalHaltingDuration="100.00" maxIntervalHaltingDuration="100.00" intervalHaltingDurationSum="200.00" startedHalts="0.00" meanVehicleNumber="2.00" maxVehicleNumber="2" />
   <interval begin="24700.00" end="24800.00" id="e2_L237_1_3" sampledSeconds="200.00" nVehEntered="0" nVehLeft="0" nVehSeen="2" meanSpeed="0.00" meanTimeLoss="100.00" meanOccupancy="29.25" maxOccupancy="29.25" meanMaxJamLengthInVehicles="2.00" meanMaxJamLengthInMeters="11.61" maxJamLengthInVehicles="2" maxJamLengthInMeters="11.61" jamLengthInVehiclesSum="200" jamLengthInMetersSum="1161.10" meanHaltingDuration="829.50" maxHaltingDuration="830.00" haltingDurationSum="1659.00" meanIntervalHaltingDuration="100.00" maxIntervalHaltingDuration="100.00" intervalHaltingDurationSum="200.00" startedHalts="0.00" meanVehicleNumber="2.00" maxVehicleNumber="2" />
   <interval begin="24800.00" end="24900.00" id="e2_L237_1_3" sampledSeconds="200.00" nVehEntered="0" nVehLeft="0" nVehSeen="2" meanSpeed="0.00" meanTimeLoss="100.00" meanOccupancy="29.25" maxOccupancy="29.25" meanMaxJamLengthInVehicles="2.00" meanMaxJamLengthInMeters="11.61" maxJamLengthInVehicles="2" maxJamLengthInMeters="11.61" jamLengthInVehiclesSum="200" jamLengthInMetersSum="1161.10" meanHaltingDuration="929.50" maxHaltingDuration="930.00" haltingDurationSum="1859.00" meanIntervalHaltingDuration="100.00" maxIntervalHaltingDuration="100.00" intervalHaltingDurationSum="200.00" startedHalts="0.00" meanVehicleNumber="2.00" maxVehicleNumber="2" />
   <interval begin="24900.00" end="25000.00" id="e2_L237_1_3" sampledSeconds="200.00" nVehEntered="0" nVehLeft="0" nVehSeen="2" meanSpeed="0.00" meanTimeLoss="100.00" meanOccupancy="29.25" maxOccupancy="29.25" meanMaxJamLengthInVehicles="2.00" meanMaxJamLengthInMeters="11.61" maxJamLengthInVehicles="2" maxJamLengthInMeters="11.61" jamLengthInVehiclesSum="200" jamLengthInMetersSum="1161.10" meanHaltingDuration="1029.50" maxHaltingDuration="1030.00" haltingDurationSum="2059.00" meanIntervalHaltingDuration="100.00" maxIntervalHaltingDuration="100.00" intervalHaltingDurationSum="200.00" startedHalts="0.00" meanVehicleNumber="2.00" maxVehicleNumber="2" />
   <interval begin="25000.00" end="25100.00" id="e2_L237_1_3" sampledSeconds="200.00" nVehEntered="0" nVehLeft="0" nVehSeen="2" meanSpeed="0.00" meanTimeLoss="100.00" meanOccupancy="29.25" maxOccupancy="29.25" meanMaxJamLengthInVehicles="2.00" meanMaxJamLengthInMeters="11.61" maxJamLengthInVehicles="2" maxJamLengthInMeters="11.61" jamLengthInVehiclesSum="200" jamLengthInMetersSum="1161.10" meanHaltingDuration="1129.50" maxHaltingDuration="1130.00" haltingDurationSum="2259.00" meanIntervalHaltingDuration="100.00" maxIntervalHaltingDuration="100.00" intervalHaltingDurationSum="200.00" startedHalts="0.00" meanVehicleNumber="2.00" maxVehicleNumber="2" />
   <interval begin="25100.00" end="25200.00" id="e2_L237_1_3" sampledSeconds="200.00" nVehEntered="0" nVehLeft="0" nVehSeen="2" meanSpeed="0.00" meanTimeLoss="100.00" meanOccupancy="29.25" maxOccupancy="29.25" meanMaxJamLengthInVehicles="2.00" meanMaxJamLengthInMeters="11.61" maxJamLengthInVehicles="2" maxJamLengthInMeters="11.61" jamLengthInVehiclesSum="200" jamLengthInMetersSum="1161.10" meanHaltingDuration="1229.50" maxHaltingDuration="1230.00" haltingDurationSum="2459.00" meanIntervalHaltingDuration="100.00" maxIntervalHaltingDuration="100.00" intervalHaltingDurationSum="200.00" startedHalts="0.00" meanVehicleNumber="2.00" maxVehicleNumber="2" />
   <interval begin="25200.00" end="25300.00" id="e2_L237_1_3" sampledSeconds="200.00" nVehEntered="0" nVehLeft="0" nVehSeen="2" meanSpeed="0.00" meanTimeLoss="100.00" meanOccupancy="29.25" maxOccupancy="29.25" meanMaxJamLengthInVehicles="2.00" meanMaxJamLengthInMeters="11.61" maxJamLengthInVehicles="2" maxJamLengthInMeters="11.61" jamLengthInVehiclesSum="200" jamLengthInMetersSum="1161.10" meanHaltingDuration="1329.50" maxHaltingDuration="1330.00" haltingDurationSum="2659.00" meanIntervalHaltingDuration="100.00" maxIntervalHaltingDuration="100.00" intervalHaltingDurationSum="200.00" startedHalts="0.00" meanVehicleNumber="2.00" maxVehicleNumber="2" />
   <interval begin="25300.00" end="25400.00" id="e2_L237_1_3" sampledSeconds="200.00" nVehEntered="0" nVehLeft="0" nVehSeen="2" meanSpeed="0.00" meanTimeLoss="100.00" meanOccupancy="29.25" maxOccupancy="29.25" meanMaxJamLengthInVehicles="2.00" meanMaxJamLengthInMeters="11.61" maxJamLengthInVehicles="2" maxJamLengthInMeters="11.61" jamLengthInVehiclesSum="200" jamLengthInMetersSum="1161.10" meanHaltingDuration="1429.50" maxHaltingDuration="1430.00" haltingDurationSum="2859.00" meanIntervalHaltingDuration="100.00" maxIntervalHaltingDuration="100.00" intervalHaltingDurationSum="200.00" startedHalts="0.00" meanVehicleNumber="2.00" maxVehicleNumber="2" />
   <interval begin="25400.00" end="25500.00" id="e2_L237_1_3" sampledSeconds="200.00" nVehEntered="0" nVehLeft="0" nVehSeen="2" meanSpeed="0.00" meanTimeLoss="100.00" meanOccupancy="29.25" maxOccupancy="29.25" meanMaxJamLengthInVehicles="2.00" meanMaxJamLengthInMeters="11.61" maxJamLengthInVehicles="2" maxJamLengthInMeters="11.61" jamLengthInVehiclesSum="200" jamLengthInMetersSum="1161.10" meanHaltingDuration="1529.50" maxHaltingDuration="1530.00" haltingDurationSum="3059.00" meanIntervalHaltingDuration="100.00" maxIntervalHaltingDuration="100.00" intervalHaltingDurationSum="200.00" startedHalts="0.00" meanVehicleNumber="2.00" maxVehicleNumber="2" />
   <interval begin="25500.00" end="25600.00" id="e2_L237_1_3" sampledSeconds="200.00" nVehEntered="0" nVehLeft="0" nVehSeen="2" meanSpeed="0.00" meanTimeLoss="100.00" meanOccupancy="29.25" maxOccupancy="29.25" meanMaxJamLengthInVehicles="2.00" meanMaxJamLengthInMeters="11.61" maxJamLengthInVehicles="2" maxJamLengthInMeters="11.61" jamLengthInVehiclesSum="200" jamLengthInMetersSum="1161.10" meanHaltingDuration="1629.50" maxHaltingDuration="1630.00" haltingDurationSum="3259.00" meanIntervalHaltingDuration="100.00" maxIntervalHaltingDuration="100.00" intervalHaltingDurationSum="200.00" startedHalts="0.00" meanVehicleNumber="2.00" maxVehicleNumber="2" />
   <interval begin="25600.00" end="25700.00" id="e2_L237_1_3" sampledSeconds="241.77" nVehEntered="3" nVehLeft="3" nVehSeen="5" meanSpeed="0.22" meanTimeLoss="47.52" meanOccupancy="32.82" maxOccupancy="55.03" meanMaxJamLengthInVehicles="2.12" meanMaxJamLengthInMeters="16.38" maxJamLengthInVehicles="3" maxJamLengthInMeters="26.74" jamLengthInVehiclesSum="214" jamLengthInMetersSum="1644.49" meanHaltingDuration="315.73" maxHaltingDuration="1686.00" haltingDurationSum="3473.00" meanIntervalHaltingDuration="19.45" maxIntervalHaltingDuration="57.00" intervalHaltingDurationSum="214.00" startedHalts="11.00" meanVehicleNumber="2.42" maxVehicleNumber="4" />
   <interval begin="25700.00" end="25800.00" id="e2_L237_1_3" sampledSeconds="212.35" nVehEntered="2" nVehLeft="3" nVehSeen="4" meanSpeed="0.21" meanTimeLoss="52.18" meanOccupancy="26.07" maxOccupancy="38.64" meanMaxJamLengthInVehicles="2.10" meanMaxJamLengthInMeters="16.66" maxJamLengthInVehicles="3" maxJamLengthInMeters="20.10" jamLengthInVehiclesSum="211" jamLengthInMetersSum="1669.19" meanHaltingDuration="23.00" maxHaltingDuration="23.00" haltingDurationSum="23.00" meanIntervalHaltingDuration="23.00" maxIntervalHaltingDuration="23.00" intervalHaltingDurationSum="23.00" startedHalts="2.00" meanVehicleNumber="2.14" maxVehicleNumber="3" />
   <interval begin="25800.00" end="25900.00" id="e2_L237_1_3" sampledSeconds="252.28" nVehEntered="5" nVehLeft="3" nVehSeen="6" meanSpeed="0.13" meanTimeLoss="41.61" meanOccupancy="29.50" maxOccupancy="38.76" meanMaxJamLengthInVehicles="2.43" meanMaxJamLengthInMeters="14.93" maxJamLengthInVehicles="3" maxJamLengthInMeters="20.39" jamLengthInVehiclesSum="244" jamLengthInMetersSum="1496.38" meanHaltingDuration="53.75" maxHaltingDuration="81.00" haltingDurationSum="215.00" meanIntervalHaltingDuration="53.75" maxIntervalHaltingDuration="81.00" intervalHaltingDurationSum="215.00" startedHalts="6.00" meanVehicleNumber="2.53" maxVehicleNumber="3" />
   <interval begin="25900.00" end="26000.00" id="e2_L237_1_3" sampledSeconds="300.00" nVehEntered="0" nVehLeft="0" nVehSeen="3" meanSpeed="0.01" meanTimeLoss="99.95" meanOccupancy="32.55" maxOccupancy="34.06" meanMaxJamLengthInVehicles="3.00" meanMaxJamLengthInMeters="18.62" maxJamLengthInVehicles="3" maxJamLengthInMeters="18.74" jamLengthInVehiclesSum="300" jamLengthInMetersSum="1861.94" meanHaltingDuration="171.00" maxHaltingDuration="181.00" haltingDurationSum="513.00" meanIntervalHaltingDuration="100.00" maxIntervalHaltingDuration="100.00" intervalHaltingDurationSum="300.00" startedHalts="0.00" meanVehicleNumber="3.00" maxVehicleNumber="3" />