<?xml version="1.0" encoding="UTF-8"?>

<!-- generated on Sun Feb 17 15:57:00 2019 by 
<configuration xmlns:xsi="http://www.w3.org/2001/XMLSchema-instance" xsi:noNamespaceSchemaLocation="http://sumo.dlr.de/xsd/Configuration.xsd">

    <input>
        <net-file value="/home/sda/Documents/sumo-sathorn-ray/models/sathorn-morning/sathorn_w_fixed_20160404.net.xml"/>
        <route-files value="/home/sda/Documents/sumo-sathorn-ray/models/sathorn-morning/Great-route/sathorn_w_20160422edit2.rou.xml"/>
        <additional-files value="/home/sda/Documents/sumo-sathorn-ray/models/sathorn-morning/sathon_wide_tls_20160418_edited.add.xml,/home/sda/Documents/sumo-sathorn-ray/detectors/sathorn_w_detectors.add.xml"/>
    </input>

    <time>
        <begin value="21600"/>
        <end value="32400"/>
        <step-length value="1"/>
    </time>

    <processing>
        <no-internal-links value="true"/>
        <ignore-junction-blocker value="-1"/>
        <time-to-teleport value="-1"/>
        <eager-insert value="true"/>
        <time-to-impatience value="300"/>
    </processing>

    <report>
        <no-warnings value="true"/>
    </report>

    <random_number>
        <random value="false"/>
        <seed value="20"/>
    </random_number>

    <gui_only>
        <gui-settings-file value="/home/sda/Documents/sumo-sathorn-ray/gui-settings/gui-settings-file-surasak.xml"/>
        <quit-on-end value="true"/>
        <start value="true"/>
        <tracker-interval value="1"/>
    </gui_only>

</configuration>
-->

<detector xmlns:xsi="http://www.w3.org/2001/XMLSchema-instance" xsi:noNamespaceSchemaLocation="http://sumo.dlr.de/xsd/det_e2_file.xsd">
   <interval begin="21600.00" end="21700.00" id="e2_L197#2_4_0" sampledSeconds="0.00" nVehEntered="0" nVehLeft="0" nVehSeen="0" meanSpeed="-1.00" meanTimeLoss="-1.00" meanOccupancy="0.00" maxOccupancy="0.00" meanMaxJamLengthInVehicles="0.00" meanMaxJamLengthInMeters="0.00" maxJamLengthInVehicles="0" maxJamLengthInMeters="0.00" jamLengthInVehiclesSum="0" jamLengthInMetersSum="0.00" meanHaltingDuration="0.00" maxHaltingDuration="0.00" haltingDurationSum="0.00" meanIntervalHaltingDuration="0.00" maxIntervalHaltingDuration="0.00" intervalHaltingDurationSum="0.00" startedHalts="0.00" meanVehicleNumber="0.00" maxVehicleNumber="0" />
   <interval begin="21700.00" end="21800.00" id="e2_L197#2_4_0" sampledSeconds="0.00" nVehEntered="0" nVehLeft="0" nVehSeen="0" meanSpeed="-1.00" meanTimeLoss="-1.00" meanOccupancy="0.00" maxOccupancy="0.00" meanMaxJamLengthInVehicles="0.00" meanMaxJamLengthInMeters="0.00" maxJamLengthInVehicles="0" maxJamLengthInMeters="0.00" jamLengthInVehiclesSum="0" jamLengthInMetersSum="0.00" meanHaltingDuration="0.00" maxHaltingDuration="0.00" haltingDurationSum="0.00" meanIntervalHaltingDuration="0.00" maxIntervalHaltingDuration="0.00" intervalHaltingDurationSum="0.00" startedHalts="0.00" meanVehicleNumber="0.00" maxVehicleNumber="0" />
   <interval begin="21800.00" end="21900.00" id="e2_L197#2_4_0" sampledSeconds="0.00" nVehEntered="0" nVehLeft="0" nVehSeen="0" meanSpeed="-1.00" meanTimeLoss="-1.00" meanOccupancy="0.00" maxOccupancy="0.00" meanMaxJamLengthInVehicles="0.00" meanMaxJamLengthInMeters="0.00" maxJamLengthInVehicles="0" maxJamLengthInMeters="0.00" jamLengthInVehiclesSum="0" jamLengthInMetersSum="0.00" meanHaltingDuration="0.00" maxHaltingDuration="0.00" haltingDurationSum="0.00" meanIntervalHaltingDuration="0.00" maxIntervalHaltingDuration="0.00" intervalHaltingDurationSum="0.00" startedHalts="0.00" meanVehicleNumber="0.00" maxVehicleNumber="0" />
   <interval begin="21900.00" end="22000.00" id="e2_L197#2_4_0" sampledSeconds="331.27" nVehEntered="7" nVehLeft="2" nVehSeen="7" meanSpeed="0.39" meanTimeLoss="45.86" meanOccupancy="48.26" maxOccupancy="65.05" meanMaxJamLengthInVehicles="2.91" meanMaxJamLengthInMeters="17.60" maxJamLengthInVehicles="5" maxJamLengthInMeters="29.00" jamLengthInVehiclesSum="291" jamLengthInMetersSum="1760.08" meanHaltingDuration="30.10" maxHaltingDuration="48.00" haltingDurationSum="301.00" meanIntervalHaltingDuration="30.10" maxIntervalHaltingDuration="48.00" intervalHaltingDurationSum="301.00" startedHalts="10.00" meanVehicleNumber="3.34" maxVehicleNumber="5" />
   <interval begin="22000.00" end="22100.00" id="e2_L197#2_4_0" sampledSeconds="500.00" nVehEntered="0" nVehLeft="0" nVehSeen="5" meanSpeed="0.00" meanTimeLoss="100.00" meanOccupancy="65.05" maxOccupancy="65.05" meanMaxJamLengthInVehicles="5.00" meanMaxJamLengthInMeters="29.00" maxJamLengthInVehicles="5" maxJamLengthInMeters="29.00" jamLengthInVehiclesSum="500" jamLengthInMetersSum="2899.89" meanHaltingDuration="138.60" maxHaltingDuration="148.00" haltingDurationSum="693.00" meanIntervalHaltingDuration="100.00" maxIntervalHaltingDuration="100.00" intervalHaltingDurationSum="500.00" startedHalts="0.00" meanVehicleNumber="5.00" maxVehicleNumber="5" />
   <interval begin="22100.00" end="22200.00" id="e2_L197#2_4_0" sampledSeconds="500.00" nVehEntered="0" nVehLeft="0" nVehSeen="5" meanSpeed="0.00" meanTimeLoss="100.00" meanOccupancy="65.05" maxOccupancy="65.05" meanMaxJamLengthInVehicles="5.00" meanMaxJamLengthInMeters="29.00" maxJamLengthInVehicles="5" maxJamLengthInMeters="29.00" jamLengthInVehiclesSum="500" jamLengthInMetersSum="2899.89" meanHaltingDuration="238.60" maxHaltingDuration="248.00" haltingDurationSum="1193.00" meanIntervalHaltingDuration="100.00" maxIntervalHaltingDuration="100.00" intervalHaltingDurationSum="500.00" startedHalts="0.00" meanVehicleNumber="5.00" maxVehicleNumber="5" />
   <interval begin="22200.00" end="22300.00" id="e2_L197#2_4_0" sampledSeconds="489.72" nVehEntered="1" nVehLeft="1" nVehSeen="6" meanSpeed="0.07" meanTimeLoss="81.16" meanOccupancy="64.16" maxOccupancy="65.05" meanMaxJamLengthInVehicles="4.73" meanMaxJamLengthInMeters="27.53" maxJamLengthInVehicles="5" maxJamLengthInMeters="29.89" jamLengthInVehiclesSum="475" jamLengthInMetersSum="2761.11" meanHaltingDuration="167.30" maxHaltingDuration="296.00" haltingDurationSum="1673.00" meanIntervalHaltingDuration="48.00" maxIntervalHaltingDuration="55.00" intervalHaltingDurationSum="480.00" startedHalts="5.00" meanVehicleNumber="4.91" maxVehicleNumber="5" />
   <interval begin="22300.00" end="22400.00" id="e2_L197#2_4_0" sampledSeconds="490.19" nVehEntered="1" nVehLeft="1" nVehSeen="6" meanSpeed="0.06" meanTimeLoss="81.27" meanOccupancy="64.14" maxOccupancy="65.05" meanMaxJamLengthInVehicles="4.73" meanMaxJamLengthInMeters="27.42" maxJamLengthInVehicles="5" maxJamLengthInMeters="29.89" jamLengthInVehiclesSum="475" jamLengthInMetersSum="2750.17" meanHaltingDuration="64.09" maxHaltingDuration="77.00" haltingDurationSum="705.00" meanIntervalHaltingDuration="43.73" maxIntervalHaltingDuration="77.00" intervalHaltingDurationSum="481.00" startedHalts="6.00" meanVehicleNumber="4.91" maxVehicleNumber="5" />
   <interval begin="22400.00" end="22500.00" id="e2_L197#2_4_0" sampledSeconds="500.00" nVehEntered="0" nVehLeft="0" nVehSeen="5" meanSpeed="0.00" meanTimeLoss="100.00" meanOccupancy="65.05" maxOccupancy="65.05" meanMaxJamLengthInVehicles="5.00" meanMaxJamLengthInMeters="29.00" maxJamLengthInVehicles="5" maxJamLengthInMeters="29.00" jamLengthInVehiclesSum="500" jamLengthInMetersSum="2899.89" meanHaltingDuration="174.00" maxHaltingDuration="177.00" haltingDurationSum="870.00" meanIntervalHaltingDuration="100.00" maxIntervalHaltingDuration="100.00" intervalHaltingDurationSum="500.00" startedHalts="0.00" meanVehicleNumber="5.00" maxVehicleNumber="5" />
   <interval begin="22500.00" end="22600.00" id="e2_L197#2_4_0" sampledSeconds="500.00" nVehEntered="0" nVehLeft="0" nVehSeen="5" meanSpeed="0.00" meanTimeLoss="100.00" meanOccupancy="65.05" maxOccupancy="65.05" meanMaxJamLengthInVehicles="5.00" meanMaxJamLengthInMeters="29.00" maxJamLengthInVehicles="5" maxJamLengthInMeters="29.00" jamLengthInVehiclesSum="500" jamLengthInMetersSum="2899.89" meanHaltingDuration="274.00" maxHaltingDuration="277.00" haltingDurationSum="1370.00" meanIntervalHaltingDuration="100.00" maxIntervalHaltingDuration="100.00" intervalHaltingDurationSum="500.00" startedHalts="0.00" meanVehicleNumber="5.00" maxVehicleNumber="5" />
   <interval begin="22600.00" end="22700.00" id="e2_L197#2_4_0" sampledSeconds="500.00" nVehEntered="0" nVehLeft="0" nVehSeen="5" meanSpeed="0.00" meanTimeLoss="100.00" meanOccupancy="65.05" maxOccupancy="65.05" meanMaxJamLengthInVehicles="5.00" meanMaxJamLengthInMeters="29.00" maxJamLengthInVehicles="5" maxJamLengthInMeters="29.00" jamLengthInVehiclesSum="500" jamLengthInMetersSum="2899.89" meanHaltingDuration="374.00" maxHaltingDuration="377.00" haltingDurationSum="1870.00" meanIntervalHaltingDuration="100.00" maxIntervalHaltingDuration="100.00" intervalHaltingDurationSum="500.00" startedHalts="0.00" meanVehicleNumber="5.00" maxVehicleNumber="5" />
   <interval begin="22700.00" end="22800.00" id="e2_L197#2_4_0" sampledSeconds="500.00" nVehEntered="0" nVehLeft="0" nVehSeen="5" meanSpeed="0.00" meanTimeLoss="100.00" meanOccupancy="65.05" maxOccupancy="65.05" meanMaxJamLengthInVehicles="5.00" meanMaxJamLengthInMeters="29.00" maxJamLengthInVehicles="5" maxJamLengthInMeters="29.00" jamLengthInVehiclesSum="500" jamLengthInMetersSum="2899.89" meanHaltingDuration="474.00" maxHaltingDuration="477.00" haltingDurationSum="2370.00" meanIntervalHaltingDuration="100.00" maxIntervalHaltingDuration="100.00" intervalHaltingDurationSum="500.00" startedHalts="0.00" meanVehicleNumber="5.00" maxVehicleNumber="5" />
   <interval begin="22800.00" end="22900.00" id="e2_L197#2_4_0" sampledSeconds="500.00" nVehEntered="0" nVehLeft="0" nVehSeen="5" meanSpeed="0.00" meanTimeLoss="100.00" meanOccupancy="65.05" maxOccupancy="65.05" meanMaxJamLengthInVehicles="