<?xml version="1.0" encoding="UTF-8"?>

<!-- generated on Sun Feb 17 15:57:00 2019 by 
<configuration xmlns:xsi="http://www.w3.org/2001/XMLSchema-instance" xsi:noNamespaceSchemaLocation="http://sumo.dlr.de/xsd/Configuration.xsd">

    <input>
        <net-file value="/home/sda/Documents/sumo-sathorn-ray/models/sathorn-morning/sathorn_w_fixed_20160404.net.xml"/>
        <route-files value="/home/sda/Documents/sumo-sathorn-ray/models/sathorn-morning/Great-route/sathorn_w_20160422edit2.rou.xml"/>
        <additional-files value="/home/sda/Documents/sumo-sathorn-ray/models/sathorn-morning/sathon_wide_tls_20160418_edited.add.xml,/home/sda/Documents/sumo-sathorn-ray/detectors/sathorn_w_detectors.add.xml"/>
    </input>

    <time>
        <begin value="21600"/>
        <end value="32400"/>
        <step-length value="1"/>
    </time>

    <processing>
        <no-internal-links value="true"/>
        <ignore-junction-blocker value="-1"/>
        <time-to-teleport value="-1"/>
        <eager-insert value="true"/>
        <time-to-impatience value="300"/>
    </processing>

    <report>
        <no-warnings value="true"/>
    </report>

    <random_number>
        <random value="false"/>
        <seed value="20"/>
    </random_number>

    <gui_only>
        <gui-settings-file value="/home/sda/Documents/sumo-sathorn-ray/gui-settings/gui-settings-file-surasak.xml"/>
        <quit-on-end value="true"/>
        <start value="true"/>
        <tracker-interval value="1"/>
    </gui_only>

</configuration>
-->

<detector xmlns:xsi="http://www.w3.org/2001/XMLSchema-instance" xsi:noNamespaceSchemaLocation="http://sumo.dlr.de/xsd/det_e2_file.xsd">
   <interval begin="21600.00" end="21700.00" id="e2_L193#2_4_1" sampledSeconds="0.00" nVehEntered="0" nVehLeft="0" nVehSeen="0" meanSpeed="-1.00" meanTimeLoss="-1.00" meanOccupancy="0.00" maxOccupancy="0.00" meanMaxJamLengthInVehicles="0.00" meanMaxJamLengthInMeters="0.00" maxJamLengthInVehicles="0" maxJamLengthInMeters="0.00" jamLengthInVehiclesSum="0" jamLengthInMetersSum="0.00" meanHaltingDuration="0.00" maxHaltingDuration="0.00" haltingDurationSum="0.00" meanIntervalHaltingDuration="0.00" maxIntervalHaltingDuration="0.00" intervalHaltingDurationSum="0.00" startedHalts="0.00" meanVehicleNumber="0.00" maxVehicleNumber="0" />
   <interval begin="21700.00" end="21800.00" id="e2_L193#2_4_1" sampledSeconds="0.00" nVehEntered="0" nVehLeft="0" nVehSeen="0" meanSpeed="-1.00" meanTimeLoss="-1.00" meanOccupancy="0.00" maxOccupancy="0.00" meanMaxJamLengthInVehicles="0.00" meanMaxJamLengthInMeters="0.00" maxJamLengthInVehicles="0" maxJamLengthInMeters="0.00" jamLengthInVehiclesSum="0" jamLengthInMetersSum="0.00" meanHaltingDuration="0.00" maxHaltingDuration="0.00" haltingDurationSum="0.00" meanIntervalHaltingDuration="0.00" maxIntervalHaltingDuration="0.00" intervalHaltingDurationSum="0.00" startedHalts="0.00" meanVehicleNumber="0.00" maxVehicleNumber="0" />
   <interval begin="21800.00" end="21900.00" id="e2_L193#2_4_1" sampledSeconds="0.00" nVehEntered="0" nVehLeft="0" nVehSeen="0" meanSpeed="-1.00" meanTimeLoss="-1.00" meanOccupancy="0.00" maxOccupancy="0.00" meanMaxJamLengthInVehicles="0.00" meanMaxJamLengthInMeters="0.00" maxJamLengthInVehicles="0" maxJamLengthInMeters="0.00" jamLengthInVehiclesSum="0" jamLengthInMetersSum="0.00" meanHaltingDuration="0.00" maxHaltingDuration="0.00" haltingDurationSum="0.00" meanIntervalHaltingDuration="0.00" maxIntervalHaltingDuration="0.00" intervalHaltingDurationSum="0.00" startedHalts="0.00" meanVehicleNumber="0.00" maxVehicleNumber="0" />
   <interval begin="21900.00" end="22000.00" id="e2_L193#2_4_1" sampledSeconds="0.00" nVehEntered="0" nVehLeft="0" nVehSeen="0" meanSpeed="-1.00" meanTimeLoss="-1.00" meanOccupancy="0.00" maxOccupancy="0.00" meanMaxJamLengthInVehicles="0.00" meanMaxJamLengthInMeters="0.00" maxJamLengthInVehicles="0" maxJamLengthInMeters="0.00" jamLengthInVehiclesSum="0" jamLengthInMetersSum="0.00" meanHaltingDuration="0.00" maxHaltingDuration="0.00" haltingDurationSum="0.00" meanIntervalHaltingDuration="0.00" maxIntervalHaltingDuration="0.00" intervalHaltingDurationSum="0.00" startedHalts="0.00" meanVehicleNumber="0.00" maxVehicleNumber="0" />
   <interval begin="22000.00" end="22100.00" id="e2_L193#2_4_1" sampledSeconds="0.00" nVehEntered="0" nVehLeft="0" nVehSeen="0" meanSpeed="-1.00" meanTimeLoss="-1.00" meanOccupancy="0.00" maxOccupancy="0.00" meanMaxJamLengthInVehicles="0.00" meanMaxJamLengthInMeters="0.00" maxJamLengthInVehicles="0" maxJamLengthInMeters="0.00" jamLengthInVehiclesSum="0" jamLengthInMetersSum="0.00" meanHaltingDuration="0.00" maxHaltingDuration="0.00" haltingDurationSum="0.00" meanIntervalHaltingDuration="0.00" maxIntervalHaltingDuration="0.00" intervalHaltingDurationSum="0.00" startedHalts="0.00" meanVehicleNumber="0.00" maxVehicleNumber="0" />
   <interval begin="22100.00" end="22200.00" id="e2_L193#2_4_1" sampledSeconds="0.00" nVehEntered="0" nVehLeft="0" nVehSeen="0" meanSpeed="-1.00" meanTimeLoss="-1.00" meanOccupancy="0.00" maxOccupancy="0.00" meanMaxJamLengthInVehicles="0.00" meanMaxJamLengthInMeters="0.00" maxJamLengthInVehicles="0" maxJamLengthInMeters="0.00" jamLengthInVehiclesSum="0" jamLengthInMetersSum="0.00" meanHaltingDuration="0.00" maxHaltingDuration="0.00" haltingDurationSum="0.00" meanIntervalHaltingDuration="0.00" maxIntervalHaltingDuration="0.00" intervalHaltingDurationSum="0.00" startedHalts="0.00" meanVehicleNumber="0.00" maxVehicleNumber="0" />
   <interval begin="22200.00" end="22300.00" id="e2_L193#2_4_1" sampledSeconds="0.00" nVehEntered="0" nVehLeft="0" nVehSeen="0" meanSpeed="-1.00" meanTimeLoss="-1.00" meanOccupancy="0.00" maxOccupancy="0.00" meanMaxJamLengthInVehicles="0.00" meanMaxJamLengthInMeters="0.00" maxJamLengthInVehicles="0" maxJamLengthInMeters="0.00" jamLengthInVehiclesSum="0" jamLengthInMetersSum="0.00" meanHaltingDuration="0.00" maxHaltingDuration="0.00" haltingDurationSum="0.00" meanIntervalHaltingDuration="0.00" maxIntervalHaltingDuration="0.00" intervalHaltingDurationSum="0.00" startedHalts="0.00" meanVehicleNumber="0.00" maxVehicleNumber="0" />
   <interval begin="22300.00" end="22400.00" id="e2_L193#2_4_1" sampledSeconds="0.00" nVehEntered="0" nVehLeft="0" nVehSeen="0" meanSpeed="-1.00" meanTimeLoss="-1.00" meanOccupancy="0.00" maxOccupancy="0.00" meanMaxJamLengthInVehicles="0.00" meanMaxJamLengthInMeters="0.00" maxJamLengthInVehicles="0" maxJamLengthInMeters="0.00" jamLengthInVehiclesSum="0" jamLengthInMetersSum="0.00" meanHaltingDuration="0.00" maxHaltingDuration="0.00" haltingDurationSum="0.00" meanIntervalHaltingDuration="0.00" maxIntervalHaltingDuration="0.00" intervalHaltingDurationSum="0.00" startedHalts="0.00" meanVehicleNumber="0.00" maxVehicleNumber="0" />
   <interval begin="22400.00" end="22500.00" id="e2_L193#2_4_1" sampledSeconds="0.00" nVehEntered="0" nVehLeft="0" nVehSeen="0" meanSpeed="-1.00" meanTimeLoss="-1.00" meanOccupancy="0.00" maxOccupancy="0.00" meanMaxJamLengthInVehicles="0.00" meanMaxJamLengthInMeters="0.00" maxJamLengthInVehicles="0" maxJamLengthInMeters="0.00" jamLengthInVehiclesSum="0" jamLengthInMetersSum="0.00" meanHaltingDuration="0.00" maxHaltingDuration="0.00" haltingDurationSum="0.00" meanIntervalHaltingDuration="0.00" maxIntervalHaltingDuration="0.00" intervalHaltingDurationSum="0.00" startedHalts="0.00" meanVehicleNumber="0.00" maxVehicleNumber="0" />
   <interval begin="22500.00" end="22600.00" id="e2_L193#2_4_1" sampledSeconds="0.00" nVehEntered="0" nVehLeft="0" nVehSeen="0" meanSpeed="-1.00" meanTimeLoss="-1.00" meanOccupancy="0.00" maxOccupancy="0.00" meanMaxJamLengthInVehicles="0.00" meanMaxJamLengthInMeters="0.00" maxJamLengthInVehicles="0" maxJamLengthInMeters="0.00" jamLengthInVehiclesSum="0" jamLengthInMetersSum="0.00" meanHaltingDuration="0.00" maxHaltingDuration="0.00" haltingDurationSum="0.00" meanIntervalHaltingDuration="0.00" maxIntervalHaltingDuration="0.00" intervalHaltingDurationSum="0.00" startedHalts="0.00" meanVehicleNumber="0.00" maxVehicleNumber="0" />
   <interval begin="22600.00" end="22700.00" id="e2_L193#2_4_1" sampledSeconds="0.00" nVehEntered="0" nVehLeft="0" nVehSeen="0" meanSpeed="-1.00" meanTimeLoss="-1.00" meanOccupancy="0.00" maxOccupancy="0.00" meanMaxJamLengthInVehicles="0.00" meanMaxJamLengthInMeters="0.00" maxJamLengthInVehicles="0" maxJamLengthInMeters="0.00" jamLengthInVehiclesSum="0" jamLengthInMetersSum="0.00" meanHaltingDuration="0.00" maxHaltingDuration="0.00" haltingDurationSum="0.00" meanIntervalHaltingDuration="0.00" maxIntervalHaltingDuration="0.00" intervalHaltingDurationSum="0.00" startedHalts="0.00" meanVehicleNumber="0.00" maxVehicleNumber="0" />
   <interval begin="22700.00" end="22800.00" id="e2_L193#2_4_1" sampledSeconds="0.00" nVehEntered="0" nVehLeft="0" nVehSeen="0" meanSpeed="-1.00" meanTimeLoss="-1.00" meanOccupancy="0.00" maxOccupancy="0.00" meanMaxJamLengthInVehicles="0.00" meanMaxJamLengthInMeters="0.00" maxJamLengthInVehicles="0" maxJamLengthInMeters="0.00" jamLengthInVehiclesSum="0" jamLengthInMetersSum="0.00" meanHaltingDuration="0.00" maxHaltingDuration="0.00" haltingDurationSum="0.00" meanIntervalHaltingDuration="0.00" maxIntervalHaltingDuration="0.00" intervalHaltingDurationSum="0.00" startedHalts="0.00" meanVehicleNumber="0.00" maxVehicleNumber="0" />
   <interval begin="22800.00" end="22900.00" id="e2_L193#2_4_1" sampledSeconds="12.93" nVehEntered="2" nVehLeft="0" nVehSeen="2" meanSpeed="5.05" meanTimeLoss="3.85" meanOccupancy="0.62" maxOccupancy="5.28" meanMaxJamLengthInVehicles="0.00" meanMaxJamLengthInMeters="0.00" maxJamLengthInVehicles="0" maxJamLengthInMeters="0.00" jamLengthInVehiclesSum="0" jamLengthInMetersSum="0.00" meanHaltingDuration="1.00" maxHaltingDuration="1.00" haltingDurationSum="2.00" meanIntervalHaltingDuration="1.00" maxIntervalHaltingDuration="1.00" intervalHaltingDurationSum="2.00" startedHalts="2.00" meanVehicleNumber="0.14" maxVehicleNumber="2" />
   <interval begin="22900.00" end="23000.00" id="e2_L193#2_4_1" sampledSeconds="296.94" nVehEntered="2" nVehLeft="0" nVehSeen="4" meanSpeed="0.65" meanTimeLoss="70.37" meanOccupancy="13.92" maxOccupancy="18.75" meanMaxJamLengthInVehicles="2.62" meanMaxJamLengthInMeters="16.09" maxJamLengthInVehicles="4" maxJamLengthInMeters="25.87" jamLengthInVehiclesSum="262" jamLengthInMetersSum="1609.23" meanHaltingDuration="38.43" maxHaltingDuration="95.00" haltingDurationSum="269.00" meanIntervalHaltingDuration="38.28" maxIntervalHaltingDuration="95.00" intervalHaltingDurationSum="268.00" startedHalts="6.00" meanVehicleNumber="2.98" maxVehicleNumber="4" />
   <interval begin="23000.00" end="23100.00" id="e2_L193#2_4_1" sampledSeconds="827.17" nVehEntered="7" nVehLeft="0" nVehSeen="11" meanSpeed="0.22" meanTimeLoss="73.82" meanOccupancy="38.78" maxOccupancy="51.56" meanMaxJamLengthInVehicles="7.88" meanMaxJamLengthInMeters="52.75" maxJamLengthInVehicles="11" maxJamLengthInMeters="74.55" jamLengthInVehiclesSum="788" jamLengthInMetersSum="5275.15" meanHaltingDuration="76.00" maxHaltingDuration="195.00" haltingDurationSum="1064.00" meanIntervalHaltingDuration="57.00" maxIntervalHaltingDuration="100.00" intervalHaltingDurationSum="798.00" startedHalts="10.00" meanVehicleNumber="8.32" maxVehicleNumber="11" />
   <interval begin="23100.00" end="23200.00" id="e2_L193#2_4_1" sampledSeconds="1100.00" nVehEntered="0" nVehLeft="0" nVehSeen="11" meanSpeed="0.00" meanTimeLoss="100.00" meanOccupancy="51.56" maxOccupancy="51.56" meanMaxJamLengthInVehicles="11.00" meanMaxJamLengthInMeters="74.53" maxJamLengthInVehicles="11" maxJamLengthInMeters="74.53" jamLengthInVehiclesSum="1100" jamLengthInMetersSum="7453.04" meanHaltingDuration="196.45" maxHaltingDuration="295.00" haltingDurationSum="2161.00" meanIntervalHaltingDuration="100.00" maxIntervalHaltingDuration="100.00" intervalHaltingDurationSum="1100.00" startedHalts="0.00" meanVehicleNumber="11.00" maxVehicleNumber="11" />
   <interval begin="23200.00" end="23300.00" id="e2_L193#2_4_1" sampledSeconds="1100.00" nVehEntered="0" nVehLeft="0" nVehSeen="11" meanSpeed="0.00" meanTimeLoss="100.00" meanOccupancy="51.56" maxOccupancy="51.56" meanMaxJamLengthInVehicles="11.00" meanMaxJamLengthInMeters="74.53" maxJamLengthInVehicles="11" maxJamLengthInMeters="74.53" jamLengthInVehiclesSum="1100" jamLengthInMetersSum="7453.04" meanHaltingDuration="296.45" maxHaltingDuration="395.00" haltingDurationSum="3261.00" meanIntervalHaltingDuration="100.00" maxIntervalHaltingDuration="100.00" intervalHaltingDurationSum="1100.00" startedHalts="0.00" meanVehicleNumber="11.00" maxVehicleNumber="11" />
   <interval begin="23300.00" end="23400.00" id="e2_L193#2_4_1" sampledSeconds="1100.00" nVehEntered="0" nVehLeft="0" nVehSeen="11" meanSpeed="0.00" meanTimeLoss="100.00" meanOccupancy="51.56" maxOccupancy="51.56" meanMaxJamLengthInVehicles="11.00" meanMaxJamLengthInMeters="74.53" maxJamLengthInVehicles="11" maxJamLengthInMeters="74.53" jamLengthInVehiclesSum="1100" jamLengthInMetersSum="7453.04" meanHaltingDuration="396.45" maxHaltingDuration="495.00" haltingDurationSum="4361.00" meanIntervalHaltingDuration="100.00" maxIntervalHaltingDuration="100.00" intervalHaltingDurationSum="1100.00" startedHalts="0.00" meanVehicleNumber="11.00" maxVehicleNumber="11" />
   <interval begin="23400.00" end="23500.00" id="e2_L193#2_4_1" sampledSeconds="1100.00" nVehEntered="0" nVehLeft="0" nVehSeen="11" meanSpeed="0.00" meanTimeLoss="100.00" meanOccupancy="51.56" maxOccupancy="51.56" meanMaxJamLengthInVehicles="11.00" meanMaxJamLengthInMeters="74.53" maxJamLengthInVehicles="11" maxJamLengthInMeters="74.53" jamLengthInVehiclesSum="1100" jamLengthInMetersSum="7453.04" meanHaltingDuration="496.45" maxHaltingDuration="595.00" haltingDurationSum="5461.00" meanIntervalHaltingDuration="100.00" maxIntervalHaltingDuration="100.00" intervalHaltingDurationSum="1100.00" startedHalts="0.00" meanVehicleNumber="11.00" maxVehicleNumber="11" />
   <interval begin="23500.00" end="23600.00" id="e2_L193#2_4_1" sampledSeconds="1005.00" nVehEntered="0" nVehLeft="1" nVehSeen="11" meanSpeed="0.04" meanTimeLoss="91.07" meanOccupancy="47.11" maxOccupancy="51.56" meanMaxJamLengthInVehicles="9.70" meanMaxJamLengthInMeters="71.23" maxJamLengthInVehicles="11" maxJamLengthInMeters="74.53" jamLengthInVehiclesSum="981" jamLengthInMetersSum="7180.18" meanHaltingDuration="278.71" maxHaltingDuration="596.00" haltingDurationSum="5853.00" meanIntervalHaltingDuration="47.00" maxIntervalHaltingDuration="100.00" intervalHaltingDurationSum="987.00" startedHalts="11.00" meanVehicleNumber="10.05" maxVehicleNumber="11" />
   <interval begin="23600.00" end="23700.00" id="e2_L193#2_4_1" sampledSeconds="1000.00" nVehEntered="0" nVehLeft="0" nVehSeen="10" meanSpeed="0.00" meanTimeLoss="100.00" meanOccupancy="46.87" maxOccupancy="46.87" meanMaxJamLengthInVehicles="10.00" meanMaxJamLengthInMeters="74.53" maxJamLengthInVehicles="10" maxJamLengthInMeters="74.53" jamLengthInVehiclesSum="1000" jamLengthInMetersSum="7453.04" meanHaltingDuration="317.80" maxHaltingDuration="654.00" haltingDurationSum="3178.00" meanIntervalHaltingDuration="100.00" maxIntervalHaltingDuration="100.00" intervalHaltingDurationSum="1000.00" startedHalts="0.00" meanVehicleNumber="10.00" maxVehicleNumber="10" />
   <interval begin="23700.00" end="23800.00" id="e2_L193#2_4_1" sampledSeconds="1000.00" nVehEntered="0" nVehLeft="0" nVehSeen="10" meanSpeed="0.00" meanTimeLoss="100.00" meanOccupancy="46.87" maxOccupancy="46.87" meanMaxJamLengthInVehicles="10.00" meanMaxJamLengthInMeters="74.53" maxJamLengthInVehicles="10" maxJamLengthInMeters="74.53" jamLengthInVehiclesSum="1000" jamLengthInMetersSum="7453.04" meanHaltingDuration="417.80" maxHaltingDuration="754.00" haltingDurationSum="4178.00" meanIntervalHaltingDuration="100.00" maxIntervalHaltingDuration="100.00" intervalHaltingDurationSum="1000.00" startedHalts="0.00" meanVehicleNumber="10.00" maxVehicleNumber="10" />
   <interval begin="23800.00" end="23900.00" id="e2_L193#2_4_1" sampledSeconds="995.00" nVehEntered="0" nVehLeft="1" nVehSeen="10" meanSpeed="0.00" meanTimeLoss="99.50" meanOccupancy="46.64" maxOccupancy="46.87" meanMaxJamLengthInVehicles="9.95" meanMaxJamLengthInMeters="74.18" maxJamLengthInVehicles="10" maxJamLengthInMeters="74.53" jamLengthInVehiclesSum="995" jamLengthInMetersSum="7418.09" meanHaltingDuration="532.00" maxHaltingDuration="854.00" haltingDurationSum="4788.00" meanIntervalHaltingDuration="100.00" maxIntervalHaltingDuration="100.00" intervalHaltingDurationSum="900.00" startedHalts="0.00" meanVehicleNumber="9.95" maxVehicleNumber="10" />
   <interval begin="23900.00" end="24000.00" id="e2_L193#2_4_1" sampledSeconds="804.00" nVehEntered="0" nVehLeft="1" nVehSeen="9" meanSpeed="0.00" meanTimeLoss="89.33" meanOccupancy="37.69" maxOccupancy="42.19" meanMaxJamLengthInVehicles="8.04" meanMaxJamLengthInMeters="60.83" maxJamLengthInVehicles="9" maxJamLengthInMeters="67.54" jamLengthInVehiclesSum="804" jamLengthInMetersSum="6082.81" meanHaltingDuration="652.00" maxHaltingDuration="954.00" haltingDurationSum="5216.00" meanIntervalHaltingDuration="100.00" maxIntervalHaltingDuration="100.00" intervalHaltingDurationSum="800.00" startedHalts="0.00" meanVehicleNumber="8.04" maxVehicleNumber="9" />
   <interval begin="24000.00" end="24100.00" id="e2_L193#2_4_1" sampledSeconds="680.00" nVehEntered="0" nVehLeft="2" nVehSeen="8" meanSpeed="0.00" meanTimeLoss="85.00" meanOccupancy="31.88" maxOccupancy="37.50" meanMaxJamLengthInVehicles="6.80" meanMaxJamLengthInMeters="49.75" maxJamLengthInVehicles="8" maxJamLengthInMeters="60.55" jamLengthInVehiclesSum="680" jamLengthInMetersSum="4974.90" meanHaltingDuration="811.83" maxHaltingDuration="1054.00" haltingDurationSum="4871.00" meanIntervalHaltingDuration="100.00" maxIntervalHaltingDuration="100.00" intervalHaltingDurationSum="600.00" startedHalts="0.00" meanVehicleNumber="6.80" maxVehicleNumber="8" />
   <interval begin="24100.00" end="24200.00" id="e2_L193#2_4_1" sampledSeconds="600.00" nVehEntered="0" nVehLeft="0" nVehSeen="6" meanSpeed="0.00" meanTimeLoss="100.00" meanOccupancy="28.12" maxOccupancy="28.12" meanMaxJamLengthInVehicles="6.00" meanMaxJamLengthInMeters="42.02" maxJamLengthInVehicles="6" maxJamLengthInMeters="42.02" jamLengthInVehiclesSum="600" jamLengthInMetersSum="4201.89" meanHaltingDuration="911.83" maxHaltingDuration="1154.00" haltingDurationSum="5471.00" meanIntervalHaltingDuration="100.00" maxIntervalHaltingDuration="100.00" intervalHaltingDurationSum="600.00" startedHalts="0.00" meanVehicleNumber="6.00" maxVehicleNumber="6" />
   <interval begin="24200.00" end="24300.00" id="e2_L193#2_4_1" sampledSeconds="467.63" nVehEntered="3" nVehLeft="3" nVehSeen="9" meanSpeed="0.25" meanTimeLoss="50.91" meanOccupancy="21.92" maxOccupancy="28.12" meanMaxJamLengthInVehicles="4.04" meanMaxJamLengthInMeters="49.25" maxJamLengthInVehicles="6" maxJamLengthInMeters="75.14" jamLengthInVehiclesSum="412" jamLengthInMetersSum="4961.90" meanHaltingDuration="138.28" maxHaltingDuration="1169.00" haltingDurationSum="2904.00" meanIntervalHaltingDuration="19.38" maxIntervalHaltingDuration="84.00" intervalHaltingDurationSum="407.00" startedHalts="18.00" meanVehicleNumber="4.70" maxVehicleNumber="6" />
   <interval begin="24300.00" end="24400.00" id="e2_L193#2_4_1" sampledSeconds="600.00" nVehEntered="0" nVehLeft="0" nVehSeen="6" meanSpeed="0.00" meanTimeLoss="100.00" meanOccupancy="28.12" maxOccupancy="28.12" meanMaxJamLengthInVehicles="6.00" meanMaxJamLengthInMeters="75.13" maxJamLengthInVehicles="6" maxJamLengthInMeters="75.13" jamLengthInVehiclesSum="600" jamLengthInMetersSum="7513.08" meanHaltingDuration="159.83" maxHaltingDuration="184.00" haltingDurationSum="959.00" meanIntervalHaltingDuration="100.00" maxIntervalHaltingDuration="100.00" intervalHaltingDurationSum="600.00" startedHalts="0.00" meanVehicleNumber="6.00" maxVehicleNumber="6" />
   <interval begin="24400.00" end="24500.00" id="e2_L193#2_4_1" sampledSeconds="600.00" nVehEntered="0" nVehLeft="0" nVehSeen="6" meanSpeed="0.00" meanTimeLoss="100.00" meanOccupancy="28.12" maxOccupancy="28.12" meanMaxJamLengthInVehicles="6.00" meanMaxJamLengthInMeters="75.13" maxJamLengthInVehicles="6" maxJamLengthInMeters="75.13" jamLengthInVehiclesSum="600" jamLengthInMetersSum="7513.08" meanHaltingDuration="259.83" maxHaltingDuration="284.00" haltingDurationSum="1559.00" meanIntervalHaltingDuration="100.00" maxIntervalHaltingDuration="100.00" intervalHaltingDurationSum="600.00" startedHalts="0.00" meanVehicleNumber="6.00" maxVehicleNumber="6" />
   <interval begin="24500.00" end="24600.00" id="e2_L193#2_4_1" sampledSeconds="600.00" nVehEntered="0" nVehLeft="0" nVehSeen="6" meanSpeed="0.00" meanTimeLoss="100.00" meanOccupancy="28.12" maxOccupancy="28.12" meanMaxJamLengthInVehicles="6.00" meanMaxJamLengthInMeters="75.13" maxJamLengthInVehicles="6" maxJamLengthInMeters="75.13" jamLengthInVehiclesSum="600" jamLengthInMetersSum="7513.08" meanHaltingDuration="359.83" maxHaltingDuration="384.00" haltingDurationSum="2159.00" meanIntervalHaltingDuration="100.00" maxIntervalHaltingDuration="100.00" intervalHaltingDurationSum="600.00" startedHalts="0.00" meanVehicleNumber="6.00" maxVehicleNumber="6" />
   <interval begin="24600.00" end="24700.00" id="e2_L193#2_4_1" sampledSeconds="600.00" nVehEntered="0" nVehLeft="0" nVehSeen="6" meanSpeed="0.00" meanTimeLoss="100.00" meanOccupancy="28.12" maxOccupancy="28.12" meanMaxJamLengthInVehicles="6.00" meanMaxJamLengthInMeters="75.13" maxJamLengthInVehicles="6" maxJamLengthInMeters="75.13" jamLengthInVehiclesSum="600" jamLengthInMetersSum="7513.08" meanHaltingDuration="459.83" maxHaltingDuration="484.00" haltingDurationSum="2759.00" meanIntervalHaltingDuration="100.00" maxIntervalHaltingDuration="100.00" intervalHaltingDurationSum="600.00" startedHalts="0.00" meanVehicleNumber="6.00" maxVehicleNumber="6" />
   <interval begin="24700.00" end="24800.00" id="e2_L193#2_4_1" sampledSeconds="600.00" nVehEntered="0" nVehLeft="0" nVehSeen="6" meanSpeed="0.00" meanTimeLoss="100.00" meanOccupancy="28.12" maxOccupancy="28.12" meanMaxJamLengthInVehicles="6.00" meanMaxJamLengthInMeters="75.13" maxJamLengthInVehicles="6" maxJamLengthInMeters="75.13" jamLengthInVehiclesSum="600" jamLengthInMetersSum="7513.08" meanHaltingDuration="559.83" maxHaltingDuration="584.00" haltingDurationSum="3359.00" meanIntervalHaltingDuration="100.00" maxIntervalHaltingDuration="100.00" intervalHaltingDurationSum="600.00" startedHalts="0.00" meanVehicleNumber="6.00" maxVehicleNumber="6" />
   <interval begin="24800.00" end="24900.00" id="e2_L193#2_4_1" sampledSeconds="600.00" nVehEntered="0" nVehLeft="0" nVehSeen="6" meanSpeed="0.00" meanTimeLoss="100.00" meanOccupancy="28.12" maxOccupancy="28.12" meanMaxJamLengthInVehicles="6.00" meanMaxJamLengthInMeters="75.13" maxJamLengthInVehicles="6" maxJamLengthInMeters="75.13" jamLengthInVehiclesSum="600" jamLengthInMetersSum="7513.08" meanHaltingDuration="659.83" maxHaltingDuration="684.00" haltingDurationSum="3959.00" meanIntervalHaltingDuration="100.00" maxIntervalHaltingDuration="100.00" intervalHaltingDurationSum="600.00" startedHalts="0.00" meanVehicleNumber="6.00" maxVehicleNumber="6" />
   <interval begin="24900.00" end="25000.00" id="e2_L193#2_4_1" sampledSeconds="600.00" nVehEntered="0" nVehLeft="0" nVehSeen="6" meanSpeed="0.00" meanTimeLoss="100.00" meanOccupancy="28.12" maxOccupancy="28.12" meanMaxJamLengthInVehicles="6.00" meanMaxJamLengthInMeters="75.13" maxJamLengthInVehicles="6" maxJamLengthInMeters="75.13" jamLengthInVehiclesSum="600" jamLengthInMetersSum="7513.08" meanHaltingDuration="759.83" maxHaltingDuration="784.00" haltingDurationSum="4559.00" meanIntervalHaltingDuration="100.00" maxIntervalHaltingDuration="100.00" intervalHaltingDurationSum="600.00" startedHalts="0.00" meanVehicleNumber="6.00" maxVehicleNumber="6" />
   <interval begin="25000.00" end="25100.00" id="e2_L193#2_4_1" sampledSeconds="600.00" nVehEntered="0" nVehLeft="0" nVehSeen="6" meanSpeed="0.00" meanTimeLoss="100.00" meanOccupancy="28.12" maxOccupancy="28.12" meanMaxJamLengthInVehicles="6.00" meanMaxJamLengthInMeters="75.13" maxJamLengthInVehicles="6" maxJamLengthInMeters="75.13" jamLengthInVehiclesSum="600" jamLengthInMetersSum="7513.08" meanHaltingDuration="859.83" maxHaltingDuration="884.00" haltingDurationSum="5159.00" meanIntervalHaltingDuration="100.00" maxIntervalHaltingDuration="100.00" intervalHaltingDurationSum="600.00" startedHalts="0.00" meanVehicleNumber="6.00" maxVehicleNumber="6" />
   <interval begin="25100.00" end="25200.00" id="e2_L193#2_4_1" sampledSeconds="600.00" nVehEntered="0" nVehLeft="0" nVehSeen="6" meanSpeed="0.00" meanTimeLoss="100.00" meanOccupancy="28.12" maxOccupancy="28.12" meanMaxJamLengthInVehicles="6.00" meanMaxJamLengthInMeters="75.13" maxJamLengthInVehicles="6" maxJamLengthInMeters="75.13" jamLengthInVehiclesSum="600" jamLengthInMetersSum="7513.08" meanHaltingDuration="959.83" maxHaltingDuration="984.00" haltingDurationSum="5759.00" meanIntervalHaltingDuration="100.00" maxIntervalHaltingDuration="100.00" intervalHaltingDurationSum="600.00" startedHalts="0.00" meanVehicleNumber="6.00" maxVehicleNumber="6" />
   <interval begin="25200.00" end="25300.00" id="e2_L193#2_4_1" sampledSeconds="600.00" nVehEntered="0" nVehLeft="0" nVehSeen="6" meanSpeed="0.00" meanTimeLoss="100.00" meanOccupancy="28.12" maxOccupancy="28.12" meanMaxJamLengthInVehicles="6.00" meanMaxJamLengthInMeters="75.13" maxJamLengthInVehicles="6" maxJamLengthInMeters="75.13" jamLengthInVehiclesSum="600" jamLengthInMetersSum="7513.08" meanHaltingDuration="1059.83" maxHaltingDuration="1084.00" haltingDurationSum="6359.00" meanIntervalHaltingDuration="100.00" maxIntervalHaltingDuration="100.00" intervalHaltingDurationSum="600.00" startedHalts="0.00" meanVehicleNumber="6.00" maxVehicleNumber="6" />
   <interval begin="25300.00" end="25400.00" id="e2_L193#2_4_1" sampledSeconds="600.00" nVehEntered="0" nVehLeft="0" nVehSeen="6" meanSpeed="0.00" meanTimeLoss="100.00" meanOccupancy="28.12" maxOccupancy="28.12" meanMaxJamLengthInVehicles="6.00" meanMaxJamLengthInMeters="75.13" maxJamLengthInVehicles="6" maxJamLengthInMeters="75.13" jamLengthInVehiclesSum="600" jamLengthInMetersSum="7513.08" meanHaltingDuration="1159.83" maxHaltingDuration="1184.00" haltingDurationSum="6959.00" meanIntervalHaltingDuration="100.00" maxIntervalHaltingDuration="100.00" intervalHaltingDurationSum="600.00" startedHalts="0.00" meanVehicleNumber="6.00" maxVehicleNumber="6" />
   <interval begin="25400.00" end="25500.00" id="e2_L193#2_4_1" sampledSeconds="600.00" nVehEntered="0" nVehLeft="0" nVehSeen="6" meanSpeed="0.00" meanTimeLoss="100.00" meanOccupancy="28.12" maxOccupancy="28.12" meanMaxJamLengthInVehicles="6.00" meanMaxJamLengthInMeters="75.13" maxJamLengthInVehicles="6" maxJamLengthInMeters="75.13" jamLengthInVehiclesSum="600" jamLengthInMetersSum="7513.08" meanHaltingDuration="1259.83" maxHaltingDuration="1284.00" haltingDurationSum="7559.00" meanIntervalHaltingDuration="100.00" maxIntervalHaltingDuration="100.00" intervalHaltingDurationSum="600.00" startedHalts="0.00" meanVehicleNumber="6.00" maxVehicleNumber="6" />
   <interval begin="25500.00" end="25600.00" id="e2_L193#2_4_1" sampledSeconds="266.31" nVehEntered="4" nVehLeft="9" nVehSeen="10" meanSpeed="0.30" meanTimeLoss="26.00" meanOccupancy="12.38" maxOccupancy="28.12" meanMaxJamLengthInVehicles="2.26" meanMaxJamLengthInMeters="21.07" maxJamLengthInVehicles="6" maxJamLengthInMeters="75.13" jamLengthInVehiclesSum="226" jamLengthInMetersSum="2106.85" meanHaltingDuration="99.31" maxHaltingDuration="1278.00" haltingDurationSum="1291.00" meanIntervalHaltingDuration="2.00" maxIntervalHaltingDuration="13.00" intervalHaltingDurationSum="26.00" startedHalts="14.00" meanVehicleNumber="2.68" maxVehicleNumber="6" />
   <interval begin="25600.00" end="25700.00" id="e2_L193#2_4_1" sampledSeconds="90.22" nVehEntered="2" nVehLeft="2" nVehSeen="3" meanSpeed="1.09" meanTimeLoss="27.46" meanOccupancy="4.27" maxOccupancy="9.38" meanMaxJamLengthInVehicles="0.50" meanMaxJamLengthInMeters="2.55" maxJamLengthInVehicles="2" maxJamLengthInMeters="11.61" jamLengthInVehiclesSum="50" jamLengthInMetersSum="254.71" meanHaltingDuration="1.00" maxHaltingDuration="1.00" haltingDurationSum="11.00" meanIntervalHaltingDuration="1.00" maxIntervalHaltingDuration="1.00" intervalHaltingDurationSum="11.00" startedHalts="13.00" meanVehicleNumber="0.91" maxVehicleNumber="2" />
   <interval begin="25700.00" end="25800.00" id="e2_L193#2_4_1" sampledSeconds="232.09" nVehEntered="10" nVehLeft="1" nVehSeen="11" meanSpeed="1.85" meanTimeLoss="17.89" meanOccupancy="10.93" maxOccupancy="46.87" meanMaxJamLengthInVehicles="1.02" meanMaxJamLengthInMeters="6.46" maxJamLengthInVehicles="6" maxJamLengthInMeters="39.69" jamLengthInVehiclesSum="102" jamLengthInMetersSum="645.73" meanHaltingDuration="3.62" maxHaltingDuration="30.00" haltingDurationSum="141.00" meanIntervalHaltingDuration="3.62" maxIntervalHaltingDuration="30.00" intervalHaltingDurationSum="141.00" startedHalts="39.00" meanVehicleNumber="2.37" maxVehicleNumber="10" />
   <interval begin="25800.00" end="25900.00" id="e2_L193#2_4_1" sampledSeconds="1089.80" nVehEntered="1" nVehLeft="0" nVehSeen="11" meanSpeed="0.02" meanTimeLoss="98.94" meanOccupancy="51.08" maxOccupancy="51.56" meanMaxJamLengthInVehicles="10.81" meanMaxJamLengthInMeters="73.23" maxJamLengthInVehicles="11" maxJamLengthInMeters="74.54" jamLengthInVehiclesSum="1081" jamLengthInMetersSum="7323.18" meanHaltingDuration="99.58" maxHaltingDuration="130.00" haltingDurationSum="1195.00" meanIntervalHaltingDuration="90.42" maxIntervalHaltingDuration="100.00" intervalHaltingDurationSum="1085.00" startedHalts="4.00" meanVehicleNumber="10.90" maxVehicleNumber="11" />