<?xml version="1.0" encoding="UTF-8"?>

<!-- generated on Sun Feb 17 15:57:00 2019 by 
<configuration xmlns:xsi="http://www.w3.org/2001/XMLSchema-instance" xsi:noNamespaceSchemaLocation="http://sumo.dlr.de/xsd/Configuration.xsd">

    <input>
        <net-file value="/home/sda/Documents/sumo-sathorn-ray/models/sathorn-morning/sathorn_w_fixed_20160404.net.xml"/>
        <route-files value="/home/sda/Documents/sumo-sathorn-ray/models/sathorn-morning/Great-route/sathorn_w_20160422edit2.rou.xml"/>
        <additional-files value="/home/sda/Documents/sumo-sathorn-ray/models/sathorn-morning/sathon_wide_tls_20160418_edited.add.xml,/home/sda/Documents/sumo-sathorn-ray/detectors/sathorn_w_detectors.add.xml"/>
    </input>

    <time>
        <begin value="21600"/>
        <end value="32400"/>
        <step-length value="1"/>
    </time>

    <processing>
        <no-internal-links value="true"/>
        <ignore-junction-blocker value="-1"/>
        <time-to-teleport value="-1"/>
        <eager-insert value="true"/>
        <time-to-impatience value="300"/>
    </processing>

    <report>
        <no-warnings value="true"/>
    </report>

    <random_number>
        <random value="false"/>
        <seed value="20"/>
    </random_number>

    <gui_only>
        <gui-settings-file value="/home/sda/Documents/sumo-sathorn-ray/gui-settings/gui-settings-file-surasak.xml"/>
        <quit-on-end value="true"/>
        <start value="true"/>
        <tracker-interval value="1"/>
    </gui_only>

</configuration>
-->

<detector xmlns:xsi="http://www.w3.org/2001/XMLSchema-instance" xsi:noNamespaceSchemaLocation="http://sumo.dlr.de/xsd/det_e2_file.xsd">
   <interval begin="21600.00" end="21700.00" id="e2_L197#1_0_1" sampledSeconds="0.00" nVehEntered="0" nVehLeft="0" nVehSeen="0" meanSpeed="-1.00" meanTimeLoss="-1.00" meanOccupancy="0.00" maxOccupancy="0.00" meanMaxJamLengthInVehicles="0.00" meanMaxJamLengthInMeters="0.00" maxJamLengthInVehicles="0" maxJamLengthInMeters="0.00" jamLengthInVehiclesSum="0" jamLengthInMetersSum="0.00" meanHaltingDuration="0.00" maxHaltingDuration="0.00" haltingDurationSum="0.00" meanIntervalHaltingDuration="0.00" maxIntervalHaltingDuration="0.00" intervalHaltingDurationSum="0.00" startedHalts="0.00" meanVehicleNumber="0.00" maxVehicleNumber="0" />
   <interval begin="21700.00" end="21800.00" id="e2_L197#1_0_1" sampledSeconds="0.00" nVehEntered="0" nVehLeft="0" nVehSeen="0" meanSpeed="-1.00" meanTimeLoss="-1.00" meanOccupancy="0.00" maxOccupancy="0.00" meanMaxJamLengthInVehicles="0.00" meanMaxJamLengthInMeters="0.00" maxJamLengthInVehicles="0" maxJamLengthInMeters="0.00" jamLengthInVehiclesSum="0" jamLengthInMetersSum="0.00" meanHaltingDuration="0.00" maxHaltingDuration="0.00" haltingDurationSum="0.00" meanIntervalHaltingDuration="0.00" maxIntervalHaltingDuration="0.00" intervalHaltingDurationSum="0.00" startedHalts="0.00" meanVehicleNumber="0.00" maxVehicleNumber="0" />
   <interval begin="21800.00" end="21900.00" id="e2_L197#1_0_1" sampledSeconds="177.98" nVehEntered="14" nVehLeft="6" nVehSeen="14" meanSpeed="11.26" meanTimeLoss="1.27" meanOccupancy="3.71" maxOccupancy="16.90" meanMaxJamLengthInVehicles="0.00" meanMaxJamLengthInMeters="0.00" maxJamLengthInVehicles="0" maxJamLengthInMeters="0.00" jamLengthInVehiclesSum="0" jamLengthInMetersSum="0.00" meanHaltingDuration="0.00" maxHaltingDuration="0.00" haltingDurationSum="0.00" meanIntervalHaltingDuration="0.00" maxIntervalHaltingDuration="0.00" intervalHaltingDurationSum="0.00" startedHalts="0.00" meanVehicleNumber="1.88" maxVehicleNumber="9" />
   <interval begin="21900.00" end="22000.00" id="e2_L197#1_0_1" sampledSeconds="425.23" nVehEntered="25" nVehLeft="29" nVehSeen="33" meanSpeed="11.34" meanTimeLoss="1.12" meanOccupancy="8.72" maxOccupancy="17.56" meanMaxJamLengthInVehicles="0.00" meanMaxJamLengthInMeters="0.00" maxJamLengthInVehicles="0" maxJamLengthInMeters="0.00" jamLengthInVehiclesSum="0" jamLengthInMetersSum="0.00" meanHaltingDuration="0.00" maxHaltingDuration="0.00" haltingDurationSum="0.00" meanIntervalHaltingDuration="0.00" maxIntervalHaltingDuration="0.00" intervalHaltingDurationSum="0.00" startedHalts="0.00" meanVehicleNumber="4.46" maxVehicleNumber="9" />
   <interval begin="22000.00" end="22100.00" id="e2_L197#1_0_1" sampledSeconds="605.41" nVehEntered="31" nVehLeft="22" nVehSeen="35" meanSpeed="6.91" meanTimeLoss="7.72" meanOccupancy="12.95" maxOccupancy="27.46" meanMaxJamLengthInVehicles="2.19" meanMaxJamLengthInMeters="13.40" maxJamLengthInVehicles="6" maxJamLengthInMeters="39.70" jamLengthInVehiclesSum="219" jamLengthInMetersSum="1340.24" meanHaltingDuration="37.33" maxHaltingDuration="82.00" haltingDurationSum="224.00" meanIntervalHaltingDuration="37.33" maxIntervalHaltingDuration="82.00" intervalHaltingDurationSum="224.00" startedHalts="7.00" meanVehicleNumber="6.20" maxVehicleNumber="13" />
   <interval begin="22100.00" end="22200.00" id="e2_L197#1_0_1" sampledSeconds="2188.51" nVehEntered="32" nVehLeft="22" nVehSeen="45" meanSpeed="1.06" meanTimeLoss="44.50" meanOccupancy="46.33" maxOccupancy="54.62" meanMaxJamLengthInVehicles="18.72" meanMaxJamLengthInMeters="128.62" maxJamLengthInVehicles="23" maxJamLengthInMeters="158.84" jamLengthInVehiclesSum="1873" jamLengthInMetersSum="12866.64" meanHaltingDuration="81.00" maxHaltingDuration="182.00" haltingDurationSum="2106.00" meanIntervalHaltingDuration="72.38" maxIntervalHaltingDuration="100.00" intervalHaltingDurationSum="1882.00" startedHalts="23.00" meanVehicleNumber="22.04" maxVehicleNumber="26" />
   <interval begin="22200.00" end="22300.00" id="e2_L197#1_0_1" sampledSeconds="2648.12" nVehEntered="23" nVehLeft="15" nVehSeen="46" meanSpeed="0.27" meanTimeLoss="56.33" meanOccupancy="55.92" maxOccupancy="63.44" meanMaxJamLengthInVehicles="24.07" meanMaxJamLengthInMeters="167.86" maxJamLengthInVehicles="31" maxJamLengthInMeters="217.45" jamLengthInVehiclesSum="2536" jamLengthInMetersSum="17664.07" meanHaltingDuration="99.02" maxHaltingDuration="244.00" haltingDurationSum="4654.00" meanIntervalHaltingDuration="54.45" maxIntervalHaltingDuration="100.00" intervalHaltingDurationSum="2559.00" startedHalts="27.00" meanVehicleNumber="26.61" maxVehicleNumber="32" />
   <interval begin="22300.00" end="22400.00" id="e2_L197#1_0_1" sampledSeconds="3076.28" nVehEntered="4" nVehLeft="4" nVehSeen="35" meanSpeed="0.15" meanTimeLoss="86.83" meanOccupancy="63.70" maxOccupancy="65.81" meanMaxJamLengthInVehicles="26.47" meanMaxJamLengthInMeters="183.19" maxJamLengthInVehicles="32" maxJamLengthInMeters="220.15" jamLengthInVehiclesSum="2948" jamLengthInMetersSum="20356.21" meanHaltingDuration="63.74" maxHaltingDuration="250.00" haltingDurationSum="5418.00" meanIntervalHaltingDuration="35.28" maxIntervalHaltingDuration="100.00" intervalHaltingDurationSum="2999.00" startedHalts="57.00" meanVehicleNumber="30.80" maxVehicleNumber="33" />
   <interval begin="22400.00" end="22500.00" id="e2_L197#1_0_1" sampledSeconds="3100.00" nVehEntered="0" nVehLeft="0" nVehSeen="31" meanSpeed="0.00" meanTimeLoss="100.00" meanOccupancy="65.48" maxOccupancy="65.48" meanMaxJamLengthInVehicles="31.00" meanMaxJamLengthInMeters="214.35" maxJamLengthInVehicles="31" maxJamLengthInMeters="214.36" jamLengthInVehiclesSum="3100" jamLengthInMetersSum="21435.14" meanHaltingDuration="146.03" maxHaltingDuration="238.00" haltingDurationSum="4527.00" meanIntervalHaltingDuration="100.00" maxIntervalHaltingDuration="100.00" intervalHaltingDurationSum="3100.00" startedHalts="0.00" meanVehicleNumber="31.00" maxVehicleNumber="31" />
   <interval begin="22500.00" end="22600.00" id="e2_L197#1_0_1" sampledSeconds="3100.00" nVehEntered="0" nVehLeft="0" nVehSeen="31" meanSpeed="0.00" meanTimeLoss="100.00" meanOccupancy="65.48" maxOccupancy="65.48" meanMaxJamLengthInVehicles="31.00" meanMaxJamLengthInMeters="214.35" maxJamLengthInVehicles="31" maxJamLengthInMeters="214.35" jamLengthInVehiclesSum="3100" jamLengthInMetersSum="21435.10" meanHaltingDuration="246.03" maxHaltingDuration="338.00" haltingDurationSum="7627.00" meanIntervalHaltingDuration="100.00" maxIntervalHaltingDuration="100.00" intervalHaltingDurationSum="3100.00" startedHalts="0.00" meanVehicleNumber="31.00" maxVehicleNumber="31" />
   <interval begin="22600.00" end="22700.00" id="e2_L197#1_0_1" sampledSeconds="3100.00" nVehEntered="0" nVehLeft="0" nVehSeen="31" meanSpeed="0.00" meanTimeLoss="100.00" meanOccupancy="65.48" maxOccupancy="65.48" meanMaxJamLengthInVehicles="31.00" meanMaxJamLengthInMeters="214.35" maxJamLengthInVehicles="31" maxJamLengthInMeters="214.35" jamLengthInVehiclesSum="3100" jamLengthInMetersSum="21435.10" meanHaltingDuration="346.03" maxHaltingDuration="438.00" haltingDurationSum="10727.00" meanIntervalHaltingDuration="100.00" maxIntervalHaltingDuration="100.00" intervalHaltingDurationSum="3100.00" startedHalts="0.00" meanVehicleNumber="31.00" maxVehicleNumber="31" />
   <interval begin="22700.00" end="22800.00" id="e2_L197#1_0_1" sampledSeconds="3100.00" nVehEntered="0" nVehLeft="0" nVehSeen="31" meanSpeed="0.00" meanTimeLoss="100.00" meanOccupancy="65.48" maxOccupancy="65.48" meanMaxJamLengthInVehicles="31.00" meanMaxJamLengthInMeters="214.35" maxJamLengthInVehicles="31" maxJamLengthInMeters="214.35" jamLengthInVehiclesSum="3100" jamLengthInMetersSum="21435.10" meanHaltingDuration="446.03" maxHaltingDuration="538.00" haltingDurationSum="13827.00" meanIntervalHaltingDuration="100.00" maxIntervalHaltingDuration="100.00" intervalHaltingDurationSum="3100.00" startedHalts="0.00" meanVehicleNumber="31.00" maxVehicleNumber="31" />
   <interval begin="22800.00" end="22900.00" id="e2_L197#1_0_1" sampledSeconds="3100.00" nVehEntered="0" nVehLeft="0" nVehSeen="31" meanSpeed="0.00" meanTimeLoss="100.00" meanOccupancy="65.48" maxOccupancy="65.48" meanMaxJamLengthInVehicles="31.00" meanMaxJamLengthInMeters="214.35" maxJamLengthInVehicles="31" maxJamLengthInMeters="214.35" jamLengthInVehiclesSum="3100" jamLengthInMetersSum="21435.10" meanHaltingDuration="546.03" maxHaltingDuration="638.00" haltingDurationSum="16927.00" meanIntervalHaltingDuration="100.00" maxIntervalHaltingDuration="100.00" intervalHaltingDurationSum="3100.00" startedHalts="0.00" meanVehicleNumber="31.00" maxVehicleNumber="31" />
   <interval begin="22900.00" end="23000.00" id="e2_L197#1_0_1" sampledSeconds="3100.00" nVehEntered="0" nVehLeft="0" nVehSeen="31" meanSpeed="0.00" meanTimeLoss="100.00" meanOccupancy="65.48" maxOccupancy="65.48" meanMaxJamLengthInVehicles="31.00" meanMaxJamLengthInMeters="214.35" maxJamLengthInVehicles="31" maxJamLengthInMeters="214.35" jamLengthInVehiclesSum="3100" jamLengthInMetersSum="21435.10" meanHaltingDuration="646.03" maxHaltingDuration="738.00" haltingDurationSum="20027.00" meanIntervalHaltingDuration="100.00" maxIntervalHaltingDuration="100.00" intervalHaltingDurationSum="3100.00" startedHalts="0.00" meanVehicleNumber="31.00" maxVehicleNumber="31" />
   <interval begin="23000.00" end="23100.00" id="e2_L197#1_0_1" sampledSeconds="3100.00" nVehEntered="0" nVehLeft="0" nVehSeen="31" meanSpeed="0.00" meanTimeLoss="100.00" meanOccupancy="65.48" maxOccupancy="65.48" meanMaxJamLengthInVehicles="31.00" meanMaxJamLengthInMeters="214.35" maxJamLengthInVehicles="31" maxJamLengthInMeters="214.35" jamLengthInVehiclesSum="3100" jamLengthInMetersSum="21435.10" meanHaltingDuration="746.03" maxHaltingDuration="838.00" haltingDurationSum="23127.00" meanIntervalHaltingDuration="100.00" maxIntervalHaltingDuration="100.00" intervalHaltingDurationSum="3100.00" startedHalts="0.00" meanVehicleNumber="31.00" maxVehicleNumber="31" />
   <interval begin="23100.00" end="23200.00" id="e2_L197#1_0_1" sampledSeconds="3100.00" nVehEntered="0" nVehLeft="0" nVehSeen="31" meanSpeed="0.00" meanTimeLoss="100.00" meanOccupancy="65.48" maxOccupancy="65.48" meanMaxJamLengthInVehicles="31.00" meanMaxJamLengthInMeters="214.35" maxJamLengthInVehicles="31" maxJamLengthInMeters="214.35" jamLengthInVehiclesSum="3100" jamLengthInMetersSum="21435.10" meanHaltingDuration="846.03" maxHaltingDuration="938.00" haltingDurationSum="26227.00" meanIntervalHaltingDuration="100.00" maxIntervalHaltingDuration="100.00" intervalHaltingDurationSum="3100.00" startedHalts="0.00" meanVehicleNumber="31.00" maxVehicleNumber="31" />
   <interval begin="23200.00" end="23300.00" id="e2_L197#1_0_1" sampledSeconds="3100.00" nVehEntered="0" nVehLeft="0" nVehSeen="31" meanSpeed="0.00" meanTimeLoss="100.00" meanOccupancy="65.48" maxOccupancy="65.48" meanMaxJamLengthInVehicles="31.00" meanMaxJamLengthInMeters="214.35" maxJamLengthInVehicles="31" maxJamLengthInMeters="214.35" jamLengthInVehiclesSum="3100" jamLengthInMetersSum="21435.10" meanHaltingDuration="946.03" maxHaltingDuration="1038.00" haltingDurationSum="29327.00" meanIntervalHaltingDuration="100.00" maxIntervalHaltingDuration="100.00" intervalHaltingDurationSum="3100.00" startedHalts="0.00" meanVehicleNumber="31.00" maxVehicleNumber="31" />
   <interval begin="23300.00" end="23400.00" id="e2_L197#1_0_1" sampledSeconds="3100.00" nVehEntered="0" nVehLeft="0" nVehSeen="31" meanSpeed="0.00" meanTimeLoss="100.00" meanOccupancy="65.48" maxOccupancy="65.48" meanMaxJamLengthInVehicles="31.00" meanMaxJamLengthInMeters="214.35" maxJamLengthInVehicles="31" maxJamLengthInMeters="214.35" jamLengthInVehiclesSum="3100" jamLengthInMetersSum="21435.10" meanHaltingDuration="1046.03" maxHaltingDuration="1138.00" haltingDurationSum="32427.00" meanIntervalHaltingDuration="100.00" maxIntervalHaltingDuration="100.00" intervalHaltingDurationSum="3100.00" startedHalts="0.00" meanVehicleNumber="31.00" maxVehicleNumber="31" />
   <interval begin="23400.00" end="23500.00" id="e2_L197#1_0_1" sampledSeconds="2902.83" nVehEntered="3" nVehLeft="6" nVehSeen="34" meanSpeed="0.33" meanTimeLoss="83.13" meanOccupancy="61.06" maxOccupancy="65.48" meanMaxJamLengthInVehicles="24.58" meanMaxJamLengthInMeters="170.41" maxJamLengthInVehicles="31" maxJamLengthInMeters="215.66" jamLengthInVehiclesSum="2606" jamLengthInMetersSum="18013.55" meanHaltingDuration="501.03" maxHaltingDuration="1225.00" haltingDurationSum="35072.00" meanIntervalHaltingDuration="37.78" maxIntervalHaltingDuration="95.00" intervalHaltingDurationSum="2645.00" startedHalts="40.00" meanVehicleNumber="29.07" maxVehicleNumber="31" />
   <interval begin="23500.00" end="23600.00" id="e2_L197#1_0_1" sampledSeconds="3075.25" nVehEntered="6" nVehLeft="3" nVehSeen="34" meanSpeed="0.05" meanTimeLoss="90.07" meanOccupancy="64.90" maxOccupancy="65.48" meanMaxJamLengthInVehicles="30.18" meanMaxJamLengthInMeters="208.92" maxJamLengthInVehicles="31" maxJamLengthInMeters="216.02" jamLengthInVehiclesSum="3020" jamLengthInMetersSum="20894.81" meanHaltingDuration="99.68" maxHaltingDuration="135.00" haltingDurationSum="3389.00" meanIntervalHaltingDuration="89.15" maxIntervalHaltingDuration="100.00" intervalHaltingDurationSum="3031.00" startedHalts="11.00" meanVehicleNumber="30.79" maxVehicleNumber="32" />
   <interval begin="23600.00" end="23700.00" id="e2_L197#1_0_1" sampledSeconds="3100.00" nVehEntered="0" nVehLeft="0" nVehSeen="31" meanSpeed="0.00" meanTimeLoss="100.00" meanOccupancy="65.48" maxOccupancy="65.48" meanMaxJamLengthInVehicles="31.00" meanMaxJamLengthInMeters="214.35" maxJamLengthInVehicles="31" maxJamLengthInMeters="214.35" jamLengthInVehiclesSum="3100" jamLengthInMetersSum="21435.12" meanHaltingDuration="209.16" maxHaltingDuration="235.00" haltingDurationSum="6484.00" meanIntervalHaltingDuration="100.00" maxIntervalHaltingDuration="100.00" intervalHaltingDurationSum="3100.00" startedHalts="0.00" meanVehicleNumber="31.00" maxVehicleNumber="31" />
   <interval begin="23700.00" end="23800.00" id="e2_L197#1_0_1" sampledSeconds="3100.00" nVehEntered="0" nVehLeft="0" nVehSeen="31" meanSpeed="0.00" meanTimeLoss="100.00" meanOccupancy="65.48" maxOccupancy="65.48" meanMaxJamLengthInVehicles="31.00" meanMaxJamLengthInMeters="214.35" maxJamLengthInVehicles="31" maxJamLengthInMeters="214.35" jamLengthInVehiclesSum="3100" jamLengthInMetersSum="21435.12" meanHaltingDuration="309.16" maxHaltingDuration="335.00" haltingDurationSum="9584.00" meanIntervalHaltingDuration="100.00" maxIntervalHaltingDuration="100.00" intervalHaltingDurationSum="3100.00" startedHalts="0.00" meanVehicleNumber="31.00" maxVehicleNumber="31" />
   <interval begin="23800.00" end="23900.00" id="e2_L197#1_0_1" sampledSeconds="2938.22" nVehEntered="5" nVehLeft="6" nVehSeen="36" meanSpeed="0.29" meanTimeLoss="79.69" meanOccupancy="61.74" maxOccupancy="65.48" meanMaxJamLengthInVehicles="23.63" meanMaxJamLengthInMeters="164.49" maxJamLengthInVehicles="31" maxJamLengthInMeters="215.25" jamLengthInVehiclesSum="2548" jamLengthInMetersSum="17609.60" meanHaltingDuration="78.05" maxHaltingDuration="373.00" haltingDurationSum="12254.00" meanIntervalHaltingDuration="17.01" maxIntervalHaltingDuration="84.00" intervalHaltingDurationSum="2670.00" startedHalts="127.00" meanVehicleNumber="29.41" maxVehicleNumber="31" />
   <interval begin="23900.00" end="24000.00" id="e2_L197#1_0_1" sampledSeconds="3070.96" nVehEntered="2" nVehLeft="3" nVehSeen="32" meanSpeed="0.06" meanTimeLoss="95.49" meanOccupancy="64.73" maxOccupancy="65.48" meanMaxJamLengthInVehicles="29.49" meanMaxJamLengthInMeters="204.53" maxJamLengthInVehicles="31" maxJamLengthInMeters="216.55" jamLengthInVehiclesSum="3009" jamLengthInMetersSum="20867.38" meanHaltingDuration="77.68" maxHaltingDuration="124.00" haltingDurationSum="3651.00" meanIntervalHaltingDuration="64.30" maxIntervalHaltingDuration="100.00" intervalHaltingDurationSum="3022.00" startedHalts="19.00" meanVehicleNumber="30.72" maxVehicleNumber="32" />
   <interval begin="24000.00" end="24100.00" id="e2_L197#1_0_1" sampledSeconds="3187.56" nVehEntered="5" nVehLeft="1" nVehSeen="34" meanSpeed="0.09" meanTimeLoss="93.05" meanOccupancy="67.17" maxOccupancy="69.71" meanMaxJamLengthInVehicles="28.58" meanMaxJamLengthInMeters="189.19" maxJamLengthInVehicles="33" maxJamLengthInMeters="216.55" jamLengthInVehiclesSum="3075" jamLengthInMetersSum="20370.15" meanHaltingDuration="66.62" maxHaltingDuration="128.00" haltingDurationSum="5063.00" meanIntervalHaltingDuration="41.12" maxIntervalHaltingDuration="100.00" intervalHaltingDurationSum="3125.00" startedHalts="51.00" meanVehicleNumber="31.89" maxVehicleNumber="33" />
   <interval begin="24100.00" end="24200.00" id="e2_L197#1_0_1" sampledSeconds="3272.11" nVehEntered="2" nVehLeft="2" nVehSeen="35" meanSpeed="0.07" meanTimeLoss="92.95" meanOccupancy="68.79" maxOccupancy="69.71" meanMaxJamLengthInVehicles="31.80" meanMaxJamLengthInMeters="208.23" maxJamLengthInVehicles="33" maxJamLengthInMeters="221.08" jamLengthInVehiclesSum="3248" jamLengthInMetersSum="21285.64" meanHaltingDuration="140.39" maxHaltingDuration="198.00" haltingDurationSum="6177.00" meanIntervalHaltingDuration="73.86" maxIntervalHaltingDuration="100.00" intervalHaltingDurationSum="3250.00" startedHalts="13.00" meanVehicleNumber="32.73" maxVehicleNumber="34" />
   <interval begin="24200.00" end="24300.00" id="e2_L197#1_0_1" sampledSeconds="3300.00" nVehEntered="0" nVehLeft="0" nVehSeen="33" meanSpeed="0.00" meanTimeLoss="100.00" meanOccupancy="69.71" maxOccupancy="69.71" meanMaxJamLengthInVehicles="33.00" meanMaxJamLengthInMeters="214.35" maxJamLengthInVehicles="33" maxJamLengthInMeters="214.35" jamLengthInVehiclesSum="3300" jamLengthInMetersSum="21435.13" meanHaltingDuration="243.97" maxHaltingDuration="298.00" haltingDurationSum="8051.00" meanIntervalHaltingDuration="100.00" maxIntervalHaltingDuration="100.00" intervalHaltingDurationSum="3300.00" startedHalts="0.00" meanVehicleNumber="33.00" maxVehicleNumber="33" />
   <interval begin="24300.00" end="24400.00" id="e2_L197#1_0_1" sampledSeconds="3300.00" nVehEntered="0" nVehLeft="0" nVehSeen="33" meanSpeed="0.00" meanTimeLoss="100.00" meanOccupancy="69.71" maxOccupancy="69.71" meanMaxJamLengthInVehicles="33.00" meanMaxJamLengthInMeters="214.35" maxJamLengthInVehicles="33" maxJamLengthInMeters="214.35" jamLengthInVehiclesSum="3300" jamLengthInMetersSum="21435.12" meanHaltingDuration="343.97" maxHaltingDuration="398.00" haltingDurationSum="11351.00" meanIntervalHaltingDuration="100.00" maxIntervalHaltingDuration="100.00" intervalHaltingDurationSum="3300.00" startedHalts="0.00" meanVehicleNumber="33.00" maxVehicleNumber="33" />
   <interval begin="24400.00" end="24500.00" id="e2_L197#1_0_1" sampledSeconds="3300.00" nVehEntered="0" nVehLeft="0" nVehSeen="33" meanSpeed="0.00" meanTimeLoss="100.00" meanOccupancy="69.71" maxOccupancy="69.71" meanMaxJamLengthInVehicles="33.00" meanMaxJamLengthInMeters="214.35" maxJamLengthInVehicles="33" maxJamLengthInMeters="214.35" jamLengthInVehiclesSum="3300" jamLengthInMetersSum="21435.12" meanHaltingDuration="443.97" maxHaltingDuration="498.00" haltingDurationSum="14651.00" meanIntervalHaltingDuration="100.00" maxIntervalHaltingDuration="100.00" intervalHaltingDurationSum="3300.00" startedHalts="0.00" meanVehicleNumber="33.00" maxVehicleNumber="33" />
   <interval begin="24500.00" end="24600.00" id="e2_L197#1_0_1" sampledSeconds="3300.00" nVehEntered="0" nVehLeft="0" nVehSeen="33" meanSpeed="0.00" meanTimeLoss="100.00" meanOccupancy="69.71" maxOccupancy="69.71" meanMaxJamLengthInVehicles="33.00" meanMaxJamLengthInMeters="214.35" maxJamLengthInVehicles="33" maxJamLengthInMeters="214.35" jamLengthInVehiclesSum="3300" jamLengthInMetersSum="21435.12" meanHaltingDuration="543.97" maxHaltingDuration="598.00" haltingDurationSum="17951.00" meanIntervalHaltingDuration="100.00" maxIntervalHaltingDuration="100.00" intervalHaltingDurationSum="3300.00" startedHalts="0.00" meanVehicleNumber="33.00" maxVehicleNumber="33" />
   <interval begin="24600.00" end="24700.00" id="e2_L197#1_0_1" sampledSeconds="3300.00" nVehEntered="0" nVehLeft="0" nVehSeen="33" meanSpeed="0.00" meanTimeLoss="100.00" meanOccupancy="69.71" maxOccupancy="69.71" meanMaxJamLengthInVehicles="33.00" meanMaxJamLengthInMeters="214.35" maxJamLengthInVehicles="33" maxJamLengthInMeters="214.35" jamLengthInVehiclesSum="3300" jamLengthInMetersSum="21435.12" meanHaltingDuration="643.97" maxHaltingDuration="698.00" haltingDurationSum="21251.00" meanIntervalHaltingDuration="100.00" maxIntervalHaltingDuration="100.00" intervalHaltingDurationSum="3300.00" startedHalts="0.00" meanVehicleNumber="33.00" maxVehicleNumber="33" />
   <interval begin="24700.00" end="24800.00" id="e2_L197#1_0_1" sampledSeconds="3300.00" nVehEntered="0" nVehLeft="0" nVehSeen="33" meanSpeed="0.01" meanTimeLoss="99.96" meanOccupancy="69.71" maxOccupancy="69.71" meanMaxJamLengthInVehicles="33.00" meanMaxJamLengthInMeters="214.60" maxJamLengthInVehicles="33" maxJamLengthInMeters="215.25" jamLengthInVehiclesSum="3300" jamLengthInMetersSum="21460.38" meanHaltingDuration="743.97" maxHaltingDuration="798.00" haltingDurationSum="24551.00" meanIntervalHaltingDuration="100.00" maxIntervalHaltingDuration="100.00" intervalHaltingDurationSum="3300.00" startedHalts="0.00" meanVehicleNumber="33.00" maxVehicleNumber="33" />
   <interval begin="24800.00" end="24900.00" id="e2_L197#1_0_1" sampledSeconds="3385.02" nVehEntered="1" nVehLeft="0" nVehSeen="34" meanSpeed="0.00" meanTimeLoss="99.53" meanOccupancy="69.97" maxOccupancy="70.04" meanMaxJamLengthInVehicles="33.85" meanMaxJamLengthInMeters="217.11" maxJamLengthInVehicles="34" maxJamLengthInMeters="217.45" jamLengthInVehiclesSum="3385" jamLengthInMetersSum="21711.09" meanHaltingDuration="821.68" maxHaltingDuration="898.00" haltingDurationSum="27937.00" meanIntervalHaltingDuration="99.59" maxIntervalHaltingDuration="100.00" intervalHaltingDurationSum="3386.00" startedHalts="1.00" meanVehicleNumber="33.86" maxVehicleNumber="34" />
   <interval begin="24900.00" end="25000.00" id="e2_L197#1_0_1" sampledSeconds="3400.00" nVehEntered="0" nVehLeft="0" nVehSeen="34" meanSpeed="0.00" meanTimeLoss="100.00" meanOccupancy="70.04" maxOccupancy="70.04" meanMaxJamLengthInVehicles="34.00" meanMaxJamLengthInMeters="217.45" maxJamLengthInVehicles="34" maxJamLengthInMeters="217.45" jamLengthInVehiclesSum="3400" jamLengthInMetersSum="21744.86" meanHaltingDuration="921.68" maxHaltingDuration="998.00" haltingDurationSum="31337.00" meanIntervalHaltingDuration="100.00" maxIntervalHaltingDuration="100.00" intervalHaltingDurationSum="3400.00" startedHalts="0.00" meanVehicleNumber="34.00" maxVehicleNumber="34" />
   <interval begin="25000.00" end="25100.00" id="e2_L197#1_0_1" sampledSeconds="3400.00" nVehEntered="0" nVehLeft="0" nVehSeen="34" meanSpeed="0.00" meanTimeLoss="100.00" meanOccupancy="70.04" maxOccupancy="70.04" meanMaxJamLengthInVehicles="34.00" meanMaxJamLengthInMeters="217.45" maxJamLengthInVehicles="34" maxJamLengthInMeters="217.45" jamLengthInVehiclesSum="3400" jamLengthInMetersSum="21744.86" meanHaltingDuration="1021.68" maxHaltingDuration="1098.00" haltingDurationSum="34737.00" meanIntervalHaltingDuration="100.00" maxIntervalHaltingDuration="100.00" intervalHaltingDurationSum="3400.00" startedHalts="0.00" meanVehicleNumber="34.00" maxVehicleNumber="34" />
   <interval begin="25100.00" end="25200.00" id="e2_L197#1_0_1" sampledSeconds="3400.00" nVehEntered="0" nVehLeft="0" nVehSeen="34" meanSpeed="0.00" meanTimeLoss="100.00" meanOccupancy="70.04" maxOccupancy="70.04" meanMaxJamLengthInVehicles="34.00" meanMaxJamLengthInMeters="217.45" maxJamLengthInVehicles="34" maxJamLengthInMeters="217.45" jamLengthInVehiclesSum="3400" jamLengthInMetersSum="21744.86" meanHaltingDuration="1121.68" maxHaltingDuration="1198.00" haltingDurationSum="38137.00" meanIntervalHaltingDuration="100.00" maxIntervalHaltingDuration="100.00" intervalHaltingDurationSum="3400.00" startedHalts="0.00" meanVehicleNumber="34.00" maxVehicleNumber="34" />
   <interval begin="25200.00" end="25300.00" id="e2_L197#1_0_1" sampledSeconds="3400.00" nVehEntered="0" nVehLeft="0" nVehSeen="34" meanSpeed="0.00" meanTimeLoss="100.00" meanOccupancy="70.04" maxOccupancy="70.04" meanMaxJamLengthInVehicles="34.00" meanMaxJamLengthInMeters="217.45" maxJamLengthInVehicles="34" maxJamLengthInMeters="217.45" jamLengthInVehiclesSum="3400" jamLengthInMetersSum="21744.87" meanHaltingDuration="1221.68" maxHaltingDuration="1298.00" haltingDurationSum="41537.00" meanIntervalHaltingDuration="100.00" maxIntervalHaltingDuration="100.00" intervalHaltingDurationSum="3400.00" startedHalts="0.00" meanVehicleNumber="34.00" maxVehicleNumber="34" />
   <interval begin="25300.00" end="25400.00" id="e2_L197#1_0_1" sampledSeconds="3400.00" nVehEntered="0" nVehLeft="0" nVehSeen="34" meanSpeed="0.00" meanTimeLoss="100.00" meanOccupancy="70.04" maxOccupancy="70.04" meanMaxJamLengthInVehicles="34.00" meanMaxJamLengthInMeters="217.45" maxJamLengthInVehicles="34" maxJamLengthInMeters="217.45" jamLengthInVehiclesSum="3400" jamLengthInMetersSum="21744.87" meanHaltingDuration="1321.68" maxHaltingDuration="1398.00" haltingDurationSum="44937.00" meanIntervalHaltingDuration="100.00" maxIntervalHaltingDuration="100.00" intervalHaltingDurationSum="3400.00" startedHalts="0.00" meanVehicleNumber="34.00" maxVehicleNumber="34" />
   <interval begin="25400.00" end="25500.00" id="e2_L197#1_0_1" sampledSeconds="3243.23" nVehEntered="2" nVehLeft="7" nVehSeen="36" meanSpeed="0.26" meanTimeLoss="88.22" meanOccupancy="66.57" maxOccupancy="70.04" meanMaxJamLengthInVehicles="25.17" meanMaxJamLengthInMeters="162.86" maxJamLengthInVehicles="34" maxJamLengthInMeters="221.46" jamLengthInVehiclesSum="3039" jamLengthInMetersSum="19690.42" meanHaltingDuration="444.75" maxHaltingDuration="1474.00" haltingDurationSum="48033.00" meanIntervalHaltingDuration="28.67" maxIntervalHaltingDuration="100.00" intervalHaltingDurationSum="3096.00" startedHalts="76.00" meanVehicleNumber="32.48" maxVehicleNumber="34" />
   <interval begin="25500.00" end="25600.00" id="e2_L197#1_0_1" sampledSeconds="3131.37" nVehEntered="25" nVehLeft="17" nVehSeen="54" meanSpeed="0.83" meanTimeLoss="54.15" meanOccupancy="65.58" maxOccupancy="78.16" meanMaxJamLengthInVehicles="19.49" meanMaxJamLengthInMeters="117.92" maxJamLengthInVehicles="37" maxJamLengthInMeters="223.62" jamLengthInVehiclesSum="2272" jamLengthInMetersSum="13435.04" meanHaltingDuration="45.53" maxHaltingDuration="1501.00" haltingDurationSum="7012.00" meanIntervalHaltingDuration="15.56" maxIntervalHaltingDuration="71.00" intervalHaltingDurationSum="2396.00" startedHalts="136.00" meanVehicleNumber="31.44" maxVehicleNumber="37" />
   <interval begin="25600.00" end="25700.00" id="e2_L197#1_0_1" sampledSeconds="3234.19" nVehEntered="28" nVehLeft="24" nVehSeen="65" meanSpeed="1.50" meanTimeLoss="43.77" meanOccupancy="67.37" maxOccupancy="86.61" meanMaxJamLengthInVehicles="16.11" meanMaxJamLengthInMeters="84.38" maxJamLengthInVehicles="38" maxJamLengthInMeters="203.43" jamLengthInVehiclesSum="1856" jamLengthInMetersSum="9624.04" meanHaltingDuration="18.05" maxHaltingDuration="83.00" haltingDurationSum="3376.00" meanIntervalHaltingDuration="10.60" maxIntervalHaltingDuration="42.00" intervalHaltingDurationSum="1983.00" startedHalts="157.00" meanVehicleNumber="32.49" maxVehicleNumber="42" />
   <interval begin="25700.00" end="25800.00" id="e2_L197#1_0_1" sampledSeconds="4293.81" nVehEntered="3" nVehLeft="1" nVehSeen="44" meanSpeed="0.01" meanTimeLoss="97.48" meanOccupancy="90.66" maxOccupancy="90.83" meanMaxJamLengthInVehicles="42.69" meanMaxJamLengthInMeters="212.33" maxJamLengthInVehicles="43" maxJamLengthInMeters="215.24" jamLengthInVehiclesSum="4271" jamLengthInMetersSum="21237.65" meanHaltingDuration="108.70" maxHaltingDuration="141.00" haltingDurationSum="5109.00" meanIntervalHaltingDuration="91.04" maxIntervalHaltingDuration="100.00" intervalHaltingDurationSum="4279.00" startedHalts="8.00" meanVehicleNumber="42.95" maxVehicleNumber="44" />