<?xml version="1.0" encoding="UTF-8"?>

<!-- generated on Sun Feb 17 15:57:00 2019 by 
<configuration xmlns:xsi="http://www.w3.org/2001/XMLSchema-instance" xsi:noNamespaceSchemaLocation="http://sumo.dlr.de/xsd/Configuration.xsd">

    <input>
        <net-file value="/home/sda/Documents/sumo-sathorn-ray/models/sathorn-morning/sathorn_w_fixed_20160404.net.xml"/>
        <route-files value="/home/sda/Documents/sumo-sathorn-ray/models/sathorn-morning/Great-route/sathorn_w_20160422edit2.rou.xml"/>
        <additional-files value="/home/sda/Documents/sumo-sathorn-ray/models/sathorn-morning/sathon_wide_tls_20160418_edited.add.xml,/home/sda/Documents/sumo-sathorn-ray/detectors/sathorn_w_detectors.add.xml"/>
    </input>

    <time>
        <begin value="21600"/>
        <end value="32400"/>
        <step-length value="1"/>
    </time>

    <processing>
        <no-internal-links value="true"/>
        <ignore-junction-blocker value="-1"/>
        <time-to-teleport value="-1"/>
        <eager-insert value="true"/>
        <time-to-impatience value="300"/>
    </processing>

    <report>
        <no-warnings value="true"/>
    </report>

    <random_number>
        <random value="false"/>
        <seed value="20"/>
    </random_number>

    <gui_only>
        <gui-settings-file value="/home/sda/Documents/sumo-sathorn-ray/gui-settings/gui-settings-file-surasak.xml"/>
        <quit-on-end value="true"/>
        <start value="true"/>
        <tracker-interval value="1"/>
    </gui_only>

</configuration>
-->

<detector xmlns:xsi="http://www.w3.org/2001/XMLSchema-instance" xsi:noNamespaceSchemaLocation="http://sumo.dlr.de/xsd/det_e2_file.xsd">
   <interval begin="21600.00" end="21700.00" id="e2_L197#2_3_0" sampledSeconds="0.00" nVehEntered="0" nVehLeft="0" nVehSeen="0" meanSpeed="-1.00" meanTimeLoss="-1.00" meanOccupancy="0.00" maxOccupancy="0.00" meanMaxJamLengthInVehicles="0.00" meanMaxJamLengthInMeters="0.00" maxJamLengthInVehicles="0" maxJamLengthInMeters="0.00" jamLengthInVehiclesSum="0" jamLengthInMetersSum="0.00" meanHaltingDuration="0.00" maxHaltingDuration="0.00" haltingDurationSum="0.00" meanIntervalHaltingDuration="0.00" maxIntervalHaltingDuration="0.00" intervalHaltingDurationSum="0.00" startedHalts="0.00" meanVehicleNumber="0.00" maxVehicleNumber="0" />
   <interval begin="21700.00" end="21800.00" id="e2_L197#2_3_0" sampledSeconds="0.00" nVehEntered="0" nVehLeft="0" nVehSeen="0" meanSpeed="-1.00" meanTimeLoss="-1.00" meanOccupancy="0.00" maxOccupancy="0.00" meanMaxJamLengthInVehicles="0.00" meanMaxJamLengthInMeters="0.00" maxJamLengthInVehicles="0" maxJamLengthInMeters="0.00" jamLengthInVehiclesSum="0" jamLengthInMetersSum="0.00" meanHaltingDuration="0.00" maxHaltingDuration="0.00" haltingDurationSum="0.00" meanIntervalHaltingDuration="0.00" maxIntervalHaltingDuration="0.00" intervalHaltingDurationSum="0.00" startedHalts="0.00" meanVehicleNumber="0.00" maxVehicleNumber="0" />
   <interval begin="21800.00" end="21900.00" id="e2_L197#2_3_0" sampledSeconds="0.00" nVehEntered="0" nVehLeft="0" nVehSeen="0" meanSpeed="-1.00" meanTimeLoss="-1.00" meanOccupancy="0.00" maxOccupancy="0.00" meanMaxJamLengthInVehicles="0.00" meanMaxJamLengthInMeters="0.00" maxJamLengthInVehicles="0" maxJamLengthInMeters="0.00" jamLengthInVehiclesSum="0" jamLengthInMetersSum="0.00" meanHaltingDuration="0.00" maxHaltingDuration="0.00" haltingDurationSum="0.00" meanIntervalHaltingDuration="0.00" maxIntervalHaltingDuration="0.00" intervalHaltingDurationSum="0.00" startedHalts="0.00" meanVehicleNumber="0.00" maxVehicleNumber="0" />
   <interval begin="21900.00" end="22000.00" id="e2_L197#2_3_0" sampledSeconds="378.30" nVehEntered="9" nVehLeft="4" nVehSeen="9" meanSpeed="0.38" meanTimeLoss="40.77" meanOccupancy="52.62" maxOccupancy="65.05" meanMaxJamLengthInVehicles="3.37" meanMaxJamLengthInMeters="19.93" maxJamLengthInVehicles="5" maxJamLengthInMeters="30.39" jamLengthInVehiclesSum="337" jamLengthInMetersSum="1993.37" meanHaltingDuration="35.75" maxHaltingDuration="46.00" haltingDurationSum="286.00" meanIntervalHaltingDuration="35.75" maxIntervalHaltingDuration="46.00" intervalHaltingDurationSum="286.00" startedHalts="10.00" meanVehicleNumber="3.83" maxVehicleNumber="5" />
   <interval begin="22000.00" end="22100.00" id="e2_L197#2_3_0" sampledSeconds="500.00" nVehEntered="0" nVehLeft="0" nVehSeen="5" meanSpeed="0.00" meanTimeLoss="100.00" meanOccupancy="65.05" maxOccupancy="65.05" meanMaxJamLengthInVehicles="5.00" meanMaxJamLengthInMeters="29.00" maxJamLengthInVehicles="5" maxJamLengthInMeters="29.00" jamLengthInVehiclesSum="500" jamLengthInMetersSum="2899.90" meanHaltingDuration="139.20" maxHaltingDuration="146.00" haltingDurationSum="696.00" meanIntervalHaltingDuration="100.00" maxIntervalHaltingDuration="100.00" intervalHaltingDurationSum="500.00" startedHalts="0.00" meanVehicleNumber="5.00" maxVehicleNumber="5" />
   <interval begin="22100.00" end="22200.00" id="e2_L197#2_3_0" sampledSeconds="500.00" nVehEntered="0" nVehLeft="0" nVehSeen="5" meanSpeed="0.00" meanTimeLoss="100.00" meanOccupancy="65.05" maxOccupancy="65.05" meanMaxJamLengthInVehicles="5.00" meanMaxJamLengthInMeters="29.00" maxJamLengthInVehicles="5" maxJamLengthInMeters="29.00" jamLengthInVehiclesSum="500" jamLengthInMetersSum="2899.90" meanHaltingDuration="239.20" maxHaltingDuration="246.00" haltingDurationSum="1196.00" meanIntervalHaltingDuration="100.00" maxIntervalHaltingDuration="100.00" intervalHaltingDurationSum="500.00" startedHalts="0.00" meanVehicleNumber="5.00" maxVehicleNumber="5" />
   <interval begin="22200.00" end="22300.00" id="e2_L197#2_3_0" sampledSeconds="481.79" nVehEntered="2" nVehLeft="2" nVehSeen="7" meanSpeed="0.13" meanTimeLoss="68.12" meanOccupancy="63.23" maxOccupancy="65.05" meanMaxJamLengthInVehicles="4.58" meanMaxJamLengthInMeters="26.50" maxJamLengthInVehicles="5" maxJamLengthInMeters="29.00" jamLengthInVehiclesSum="458" jamLengthInMetersSum="2649.52" meanHaltingDuration="150.91" maxHaltingDuration="291.00" haltingDurationSum="1660.00" meanIntervalHaltingDuration="42.18" maxIntervalHaltingDuration="51.00" intervalHaltingDurationSum="464.00" startedHalts="6.00" meanVehicleNumber="4.83" maxVehicleNumber="5" />
   <interval begin="22300.00" end="22400.00" id="e2_L197#2_3_0" sampledSeconds="490.62" nVehEntered="1" nVehLeft="1" nVehSeen="6" meanSpeed="0.06" meanTimeLoss="81.35" meanOccupancy="64.32" maxOccupancy="65.05" meanMaxJamLengthInVehicles="4.77" meanMaxJamLengthInMeters="27.76" maxJamLengthInVehicles="5" maxJamLengthInMeters="29.90" jamLengthInVehiclesSum="478" jamLengthInMetersSum="2779.38" meanHaltingDuration="70.80" maxHaltingDuration="78.00" haltingDurationSum="708.00" meanIntervalHaltingDuration="48.30" maxIntervalHaltingDuration="78.00" intervalHaltingDurationSum="483.00" startedHalts="5.00" meanVehicleNumber="4.91" maxVehicleNumber="5" />
   <interval begin="22400.00" end="22500.00" id="e2_L197#2_3_0" sampledSeconds="500.00" nVehEntered="0" nVehLeft="0" nVehSeen="5" meanSpeed="0.00" meanTimeLoss="100.00" meanOccupancy="65.05" maxOccupancy="65.05" meanMaxJamLengthInVehicles="5.00" meanMaxJamLengthInMeters="29.00" maxJamLengthInVehicles="5" maxJamLengthInMeters="29.00" jamLengthInVehiclesSum="500" jamLengthInMetersSum="2899.90" meanHaltingDuration="175.00" maxHaltingDuration="178.00" haltingDurationSum="875.00" meanIntervalHaltingDuration="100.00" maxIntervalHaltingDuration="100.00" intervalHaltingDurationSum="500.00" startedHalts="0.00" meanVehicleNumber="5.00" maxVehicleNumber="5" />
   <interval begin="22500.00" end="22600.00" id="e2_L197#2_3_0" sampledSeconds="500.00" nVehEntered="0" nVehLeft="0" nVehSeen="5" meanSpeed="0.00" meanTimeLoss="100.00" meanOccupancy="65.05" maxOccupancy="65.05" meanMaxJamLengthInVehicles="5.00" meanMaxJamLengthInMeters="29.00" maxJamLengthInVehicles="5" maxJamLengthInMeters="29.00" jamLengthInVehiclesSum="500" jamLengthInMetersSum="2899.90" meanHaltingDuration="275.00" maxHaltingDuration="278.00" haltingDurationSum="1375.00" meanIntervalHaltingDuration="100.00" maxIntervalHaltingDuration="100.00" intervalHaltingDurationSum="500.00" startedHalts="0.00" meanVehicleNumber="5.00" maxVehicleNumber="5" />
   <interval begin="22600.00" end="22700.00" id="e2_L197#2_3_0" sampledSeconds="500.00" nVehEntered="0" nVehLeft="0" nVehSeen="5" meanSpeed="0.00" meanTimeLoss="100.00" meanOccupancy="65.05" maxOccupancy="65.05" meanMaxJamLengthInVehicles="5.00" meanMaxJamLengthInMeters="29.00" maxJamLengthInVehicles="5" maxJamLengthInMeters="29.00" jamLengthInVehiclesSum="500" jamLengthInMetersSum="2899.90" meanHaltingDuration="375.00" maxHaltingDuration="378.00" haltingDurationSum="1875.00" meanIntervalHaltingDuration="100.00" maxIntervalHaltingDuration="100.00" intervalHaltingDurationSum="500.00" startedHalts="0.00" meanVehicleNumber="5.00" maxVehicleNumber="5" />
   <interval begin="22700.00" end="22800.00" id="e2_L197#2_3_0" sampledSeconds="500.00" nVehEntered="0" nVehLeft="0" nVehSeen="5" meanSpeed="0.00" meanTimeLoss="100.00" meanOccupancy="65.05" maxOccupancy="65.05" meanMaxJamLengthInVehicles="5.00" meanMaxJamLengthInMeters="29.00" maxJamLengthInVehicles="5" maxJamLengthInMeters="29.00" jamLengthInVehiclesSum="500" jamLengthInMetersSum="2899.90" meanHaltingDuration="475.00" maxHaltingDuration="478.00" haltingDurationSum="2375.00" meanIntervalHaltingDuration="100.00" maxIntervalHaltingDuration="100.00" intervalHaltingDurationSum="500.00" startedHalts="0.00" meanVehicleNumber="5.00" maxVehicleNumber="5" />
   <interval begin="22800.00" end="22900.00" id="e2_L197#2_3_0" sampledSeconds="500.00" nVehEntered="0" nVehLeft="0" nVehSeen="5" meanSpeed="0.00" meanTimeLoss="100.00" meanOccupancy="65.05" maxOccupancy="65.05" meanMaxJamLengthInVehicles="5.00" meanMaxJamLengthInMeters="29.00" maxJamLengthInVehicles="5" maxJamLengthInMeters="29.00" jamLengthInVehiclesSum="500" jamLengthInMetersSum="2899.90" meanHaltingDuration="575.00" maxHaltingDuration="578.00" haltingDurationSum="2875.00" meanIntervalHaltingDuration="100.00" maxIntervalHaltingDuration="100.00" intervalHaltingDurationSum="500.00" startedHalts="0.00" meanVehicleNumber="5.00" maxVehicleNumber="5" />
   <interval begin="22900.00" end="23000.00" id="e2_L197#2_3_0" sampledSeconds="500.00" nVehEntered="0" nVehLeft="0" nVehSeen="5" meanSpeed="0.00" meanTimeLoss="100.00" meanOccupancy="65.05" maxOccupancy="65.05" meanMaxJamLengthInVehicles="5.00" meanMaxJamLengthInMeters="29.00" maxJamLengthInVehicles="5" maxJamLengthInMeters="29.00" jamLengthInVehiclesSum="500" jamLengthInMetersSum="2899.90" meanHaltingDuration="675.00" maxHaltingDuration="678.00" haltingDurationSum="3375.00" meanIntervalHaltingDuration="100.00" maxIntervalHaltingDuration="100.00" intervalHaltingDurationSum="500.00" startedHalts="0.00" meanVehicleNumber="5.00" maxVehicleNumber="5" />
   <interval begin="23000.00" end="23100.00" id="e2_L197#2_3_0" sampledSeconds="500.00" nVehEntered="0" nVehLeft="0" nVehSeen="5" meanSpeed="0.00" meanTimeLoss="100.00" meanOccupancy="65.05" maxOccupancy="65.05" meanMaxJamLengthInVehicles="5.00" meanMaxJamLengthInMeters="29.00" maxJamLengthInVehicles="5" maxJamLengthInMeters="29.00" jamLengthInVehiclesSum="500" jamLengthInMetersSum="2899.90" meanHaltingDuration="775.00" maxHaltingDuration="778.00" haltingDurationSum="3875.00" meanIntervalHaltingDuration="100.00" maxIntervalHaltingDuration="100.00" intervalHaltingDurationSum="500.00" startedHalts="0.00" meanVehicleNumber="5.00" maxVehicleNumber="5" />
   <interval begin="23100.00" end="23200.00" id="e2_L197#2_3_0" sampledSeconds="500.00" nVehEntered="0" nVehLeft="0" nVehSeen="5" meanSpeed="0.00" meanTimeLoss="100.00" meanOccupancy="65.05" maxOccupancy="65.05" meanMaxJamLengthInVehicles="5.00" meanMaxJamLengthInMeters="29.00" maxJamLengthInVehicles="5" maxJamLengthInMeters="29.00" jamLengthInVehiclesSum="500" jamLengthInMetersSum="2899.90" meanHaltingDuration="875.00" maxHaltingDuration="878.00" haltingDurationSum="4375.00" meanIntervalHaltingDuration="100.00" maxIntervalHaltingDuration="100.00" intervalHaltingDurationSum="500.00" startedHalts="0.00" meanVehicleNumber="5.00" maxVehicleNumber="5" />
   <interval begin="23200.00" end="23300.00" id="e2_L197#2_3_0" sampledSeconds="500.00" nVehEntered="0" nVehLeft="0" nVehSeen="5" meanSpeed="0.00" meanTimeLoss="100.00" meanOccupancy="65.05" maxOccupancy="65.05" meanMaxJamLengthInVehicles="5.00" meanMaxJamLengthInMeters="29.00" maxJamLengthInVehicles="5" maxJamLengthInMeters="29.00" jamLengthInVehiclesSum="500" jamLengthInMetersSum="2899.90" meanHaltingDuration="975.00" maxHaltingDuration="978.00" haltingDurationSum="4875.00" meanIntervalHaltingDuration="100.00" maxIntervalHaltingDuration="100.00" intervalHaltingDurationSum="500.00" startedHalts="0.00" meanVehicleNumber="5.00" maxVehicleNumber="5" />
   <interval begin="23300.00" end="23400.00" id="e2_L197#2_3_0" sampledSeconds="500.00" nVehEntered="0" nVehLeft="0" nVehSeen="5" meanSpeed="0.00" meanTimeLoss="100.00" meanOccupancy="65.05" maxOccupancy="65.05" meanMaxJamLengthInVehicles="5.00" meanMaxJamLengthInMeters="29.00" maxJamLengthInVehicles="5" maxJamLengthInMeters="29.00" jamLengthInVehiclesSum="500" jamLengthInMetersSum="2899.90" meanHaltingDuration="1075.00" maxHaltingDuration="1078.00" haltingDurationSum="5375.00" meanIntervalHaltingDuration="100.00" maxIntervalHaltingDuration="100.00" intervalHaltingDurationSum="500.00" startedHalts="0.00" meanVehicleNumber="5.00" maxVehicleNumber="5" />
   <interval begin="23400.00" end="23500.00" id="e2_L197#2_3_0" sampledSeconds="491.18" nVehEntered="1" nVehLeft="1" nVehSeen="6" meanSpeed="0.07" meanTimeLoss="81.41" meanOccupancy="65.17" maxOccupancy="66.98" meanMaxJamLengthInVehicles="4.76" meanMaxJamLengthInMeters="27.86" maxJamLengthInVehicles="5" maxJamLengthInMeters="29.58" jamLengthInVehiclesSum="477" jamLengthInMetersSum="2787.95" meanHaltingDuration="585.70" maxHaltingDuration="1114.00" haltingDurationSum="5857.00" meanIntervalHaltingDuration="48.20" maxIntervalHaltingDuration="61.00" intervalHaltingDurationSum="482.00" startedHalts="5.00" meanVehicleNumber="4.92" maxVehicleNumber="5" />
   <interval begin="23500.00" end="23600.00" id="e2_L197#2_3_0" sampledSeconds="500.00" nVehEntered="0" nVehLeft="0" nVehSeen="5" meanSpeed="0.00" meanTimeLoss="100.00" meanOccupancy="66.98" maxOccupancy="66.98" meanMaxJamLengthInVehicles="5.00" meanMaxJamLengthInMeters="29.58" maxJamLengthInVehicles="5" maxJamLengthInMeters="29.58" jamLengthInVehiclesSum="500" jamLengthInMetersSum="2957.70" meanHaltingDuration="158.20" maxHaltingDuration="161.00" haltingDurationSum="791.00" meanIntervalHaltingDuration="100.00" maxIntervalHaltingDuration="100.00" intervalHaltingDurationSum="500.00" startedHalts="0.00" meanVehicleNumber="5.00" maxVehicleNumber="5" />
   <interval begin="23600.00" end="23700.00" id="e2_L197#2_3_0" sampledSeconds="500.00" nVehEntered="0" nVehLeft="0" nVehSeen="5" meanSpeed="0.00" meanTimeLoss="100.00" meanOccupancy="66.98" maxOccupancy="66.98" meanMaxJamLengthInVehicles="5.00" meanMaxJamLengthInMeters="29.58" maxJamLengthInVehicles="5" maxJamLengthInMeters="29.58" jamLengthInVehiclesSum="500" jamLengthInMetersSum="2957.70" meanHaltingDuration="258.20" maxHaltingDuration="261.00" haltingDurationSum="1291.00" meanIntervalHaltingDuration="100.00" maxIntervalHaltingDuration="100.00" intervalHaltingDurationSum="500.00" startedHalts="0.00" meanVehicleNumber="5.00" maxVehicleNumber="5" />
   <interval begin="23700.00" end="23800.00" id="e2_L197#2_3_0" sampledSeconds="500.00" nVehEntered="0" nVehLeft="0" nVehSeen="5" meanSpeed="0.00" meanTimeLoss="100.00" meanOccupancy="66.98" maxOccupancy="66.98" meanMaxJamLengthInVehicles="5.00" meanMaxJamLengthInMeters="29.58" maxJamLengthInVehicles="5" maxJamLengthInMeters="29.58" jamLengthInVehiclesSum="500" jamLengthInMetersSum="2957.70" meanHaltingDuration="358.20" maxHaltingDuration="361.00" haltingDurationSum="1791.00" meanIntervalHaltingDuration="100.00" maxIntervalHaltingDuration="100.00" intervalHaltingDurationSum="500.00" startedHalts="0.00" meanVehicleNumber="5.00" maxVehicleNumber="5" />
   <interval begin="23800.00" end="23900.00" id="e2_L197#2_3_0" sampledSeconds="489.37" nVehEntered="1" nVehLeft="1" nVehSeen="6" meanSpeed="0.07" meanTimeLoss="81.11" meanOccupancy="66.62" maxOccupancy="68.35" meanMaxJamLengthInVehicles="4.76" meanMaxJamLengthInMeters="28.47" maxJamLengthInVehicles="5" maxJamLengthInMeters="30.76" jamLengthInVehiclesSum="478" jamLengthInMetersSum="2851.63" meanHaltingDuration="209.67" maxHaltingDuration="388.00" haltingDurationSum="1887.00" meanIntervalHaltingDuration="50.78" maxIntervalHaltingDuration="71.00" intervalHaltingDurationSum="457.00" startedHalts="5.00" meanVehicleNumber="4.90" maxVehicleNumber="5" />
   <interval begin="23900.00" end="24000.00" id="e2_L197#2_3_0" sampledSeconds="484.93" nVehEntered="2" nVehLeft="2" nVehSeen="7" meanSpeed="0.13" meanTimeLoss="68.52" meanOccupancy="65.65" maxOccupancy="68.35" meanMaxJamLengthInVehicles="4.63" meanMaxJamLengthInMeters="27.55" maxJamLengthInVehicles="5" maxJamLengthInMeters="30.88" jamLengthInVehiclesSum="463" jamLengthInMetersSum="2755.08" meanHaltingDuration="80.70" maxHaltingDuration="137.00" haltingDurationSum="807.00" meanIntervalHaltingDuration="46.80" maxIntervalHaltingDuration="71.00" intervalHaltingDurationSum="468.00" startedHalts="5.00" meanVehicleNumber="4.87" maxVehicleNumber="5" />
   <interval begin="24000.00" end="24100.00" id="e2_L197#2_3_0" sampledSeconds="500.00" nVehEntered="0" nVehLeft="0" nVehSeen="5" meanSpeed="0.00" meanTimeLoss="100.00" meanOccupancy="65.05" maxOccupancy="65.05" meanMaxJamLengthInVehicles="5.00" meanMaxJamLengthInMeters="29.00" maxJamLengthInVehicles="5" maxJamLengthInMeters="29.00" jamLengthInVehiclesSum="500" jamLengthInMetersSum="2899.89" meanHaltingDuration="125.20" maxHaltingDuration="128.00" haltingDurationSum="626.00" meanIntervalHaltingDuration="100.00" maxIntervalHaltingDuration="100.00" intervalHaltingDurationSum="500.00" startedHalts="0.00" meanVehicleNumber="5.00" maxVehicleNumber="5" />
   <interval begin="24100.00" end="24200.00" id="e2_L197#2_3_0" sampledSeconds="478.87" nVehEntered="2" nVehLeft="2" nVehSeen="7" meanSpeed="0.14" meanTimeLoss="67.65" meanOccupancy="62.91" maxOccupancy="65.05" meanMaxJamLengthInVehicles="4.55" meanMaxJamLengthInMeters="26.46" maxJamLengthInVehicles="5" maxJamLengthInMeters="29.00" jamLengthInVehiclesSum="455" jamLengthInMetersSum="2646.21" meanHaltingDuration="98.82" maxHaltingDuration="145.00" haltingDurationSum="1087.00" meanIntervalHaltingDuration="41.91" maxIntervalHaltingDuration="77.00" intervalHaltingDurationSum="461.00" startedHalts="6.00" meanVehicleNumber="4.80" maxVehicleNumber="5" />
   <interval begin="24200.00" end="24300.00" id="e2_L197#2_3_0" sampledSeconds="500.00" nVehEntered="0" nVehLeft="0" nVehSeen="5" meanSpeed="0.00" meanTimeLoss="100.00" meanOccupancy="65.05" maxOccupancy="65.05" meanMaxJamLengthInVehicles="5.00" meanMaxJamLengthInMeters="29.00" maxJamLengthInVehicles="5" maxJamLengthInMeters="29.00" jamLengthInVehiclesSum="500" jamLengthInMetersSum="2899.90" meanHaltingDuration="173.40" maxHaltingDuration="177.00" haltingDurationSum="867.00" meanIntervalHaltingDuration="100.00" maxIntervalHaltingDuration="100.00" intervalHaltingDurationSum="500.00" startedHalts="0.00" meanVehicleNumber="5.00" maxVehicleNumber="5" />
   <interval begin="24300.00" end="24400.00" id="e2_L197#2_3_0" sampledSeconds="500.00" nVehEntered="0" nVehLeft="0" nVehSeen="5" meanSpeed="0.00" meanTimeLoss="100.00" meanOccupancy="65.05" maxOccupancy="65.05" meanMaxJamLengthInVehicles="5.00" meanMaxJamLengthInMeters="29.00" maxJamLengthInVehicles="5" maxJamLengthInMeters="29.00" jamLengthInVehiclesSum="500" jamLengthInMetersSum="2899.90" meanHaltingDuration="273.40" maxHaltingDuration="277.00" haltingDurationSum="1367.00" meanIntervalHaltingDuration="100.00" maxIntervalHaltingDuration="100.00" intervalHaltingDurationSum="500.00" startedHalts="0.00" meanVehicleNumber="5.00" maxVehicleNumber="5" />
   <interval begin="24400.00" end="24500.00" id="e2_L197#2_3_0" sampledSeconds="500.00" nVehEntered="0" nVehLeft="0" nVehSeen="5" meanSpeed="0.00" meanTimeLoss="100.00" meanOccupancy="65.05" maxOccupancy="65.05" meanMaxJamLengthInVehicles="5.00" meanMaxJamLengthInMeters="29.00" maxJamLengthInVehicles="5" maxJamLengthInMeters="29.00" jamLengthInVehiclesSum="500" jamLengthInMetersSum="2899.90" meanHaltingDuration="373.40" maxHaltingDuration="377.00" haltingDurationSum="1867.00" meanIntervalHaltingDuration="100.00" maxIntervalHaltingDuration="100.00" intervalHaltingDurationSum="500.00" startedHalts="0.00" meanVehicleNumber="5.00" maxVehicleNumber="5" />
   <interval begin="24500.00" end="24600.00" id="e2_L197#2_3_0" sampledSeconds="500.00" nVehEntered="0" nVehLeft="0" nVehSeen="5" meanSpeed="0.00" meanTimeLoss="100.00" meanOccupancy="65.05" maxOccupancy="65.05" meanMaxJamLengthInVehicles="5.00" meanMaxJamLengthInMeters="29.00" maxJamLengthInVehicles="5" maxJamLengthInMeters="29.00" jamLengthInVehiclesSum="500" jamLengthInMetersSum="2899.90" meanHaltingDuration="473.40" maxHaltingDuration="477.00" haltingDurationSum="2367.00" meanIntervalHaltingDuration="100.00" maxIntervalHaltingDuration="100.00" intervalHaltingDurationSum="500.00" startedHalts="0.00" meanVehicleNumber="5.00" maxVehicleNumber="5" />
   <interval begin="24600.00" end="24700.00" id="e2_L197#2_3_0" sampledSeconds="500.00" nVehEntered="0" nVehLeft="0" nVehSeen="5" meanSpeed="0.00" meanTimeLoss="100.00" meanOccupancy="65.05" maxOccupancy="65.05" meanMaxJamLengthInVehicles="5.00" meanMaxJamLengthInMeters="29.00" maxJamLengthInVehicles="5" maxJamLengthInMeters="29.00" jamLengthInVehiclesSum="500" jamLengthInMetersSum="2899.90" meanHaltingDuration="573.40" maxHaltingDuration="577.00" haltingDurationSum="2867.00" meanIntervalHaltingDuration="100.00" maxIntervalHaltingDuration="100.00" intervalHaltingDurationSum="500.00" startedHalts="0.00" meanVehicleNumber="5.00" maxVehicleNumber="5" />
   <interval begin="24700.00" end="24800.00" id="e2_L197#2_3_0" sampledSeconds="500.00" nVehEntered="0" nVehLeft="0" nVehSeen="5" meanSpeed="0.01" meanTimeLoss="99.93" meanOccupancy="66.19" maxOccupancy="68.05" meanMaxJamLengthInVehicles="5.00" meanMaxJamLengthInMeters="29.39" maxJamLengthInVehicles="5" maxJamLengthInMeters="29.90" jamLengthInVehiclesSum="500" jamLengthInMetersSum="2939.32" meanHaltingDuration="673.40" maxHaltingDuration="677.00" haltingDurationSum="3367.00" meanIntervalHaltingDuration="100.00" maxIntervalHaltingDuration="100.00" intervalHaltingDurationSum="500.00" startedHalts="0.00" meanVehicleNumber="5.00" maxVehicleNumber="5" />
   <interval begin="24800.00" end="24900.00" id="e2_L197#2_3_0" sampledSeconds="500.00" nVehEntered="0" nVehLeft="0" nVehSeen="5" meanSpeed="0.00" meanTimeLoss="100.00" meanOccupancy="68.05" maxOccupancy="68.05" meanMaxJamLengthInVehicles="5.00" meanMaxJamLengthInMeters="29.90" maxJamLengthInVehicles="5" maxJamLengthInMeters="29.90" jamLengthInVehiclesSum="500" jamLengthInMetersSum="2989.89" meanHaltingDuration="773.40" maxHaltingDuration="777.00" haltingDurationSum="3867.00" meanIntervalHaltingDuration="100.00" maxIntervalHaltingDuration="100.00" intervalHaltingDurationSum="500.00" startedHalts="0.00" meanVehicleNumber="5.00" maxVehicleNumber="5" />
   <interval begin="24900.00" end="25000.00" id="e2_L197#2_3_0" sampledSeconds="500.00" nVehEntered="0" nVehLeft="0" nVehSeen="5" meanSpeed="0.00" meanTimeLoss="100.00" meanOccupancy="68.05" maxOccupancy="68.05" meanMaxJamLengthInVehicles="5.00" meanMaxJamLengthInMeters="29.90" maxJamLengthInVehicles="5" maxJamLengthInMeters="29.90" jamLengthInVehiclesSum="500" jamLengthInMetersSum="2989.89" meanHaltingDuration="873.40" maxHaltingDuration="877.00" haltingDurationSum="4367.00" meanIntervalHaltingDuration="100.00" maxIntervalHaltingDuration="100.00" intervalHaltingDurationSum="500.00" startedHalts="0.00" meanVehicleNumber="5.00" maxVehicleNumber="5" />
   <interval begin="25000.00" end="25100.00" id="e2_L197#2_3_0" sampledSeconds="500.00" nVehEntered="0" nVehLeft="0" nVehSeen="5" meanSpeed="0.00" meanTimeLoss="100.00" meanOccupancy="68.05" maxOccupancy="68.05" meanMaxJamLengthInVehicles="5.00" meanMaxJamLengthInMeters="29.90" maxJamLengthInVehicles="5" maxJamLengthInMeters="29.90" jamLengthInVehiclesSum="500" jamLengthInMetersSum="2989.89" meanHaltingDuration="973.40" maxHaltingDuration="977.00" haltingDurationSum="4867.00" meanIntervalHaltingDuration="100.00" maxIntervalHaltingDuration="100.00" intervalHaltingDurationSum="500.00" startedHalts="0.00" meanVehicleNumber="5.00" maxVehicleNumber="5" />
   <interval begin="25100.00" end="25200.00" id="e2_L197#2_3_0" sampledSeconds="500.00" nVehEntered="0" nVehLeft="0" nVehSeen="5" meanSpeed="0.00" meanTimeLoss="100.00" meanOccupancy="68.05" maxOccupancy="68.05" meanMaxJamLengthInVehicles="5.00" meanMaxJamLengthInMeters="29.90" maxJamLengthInVehicles="5" maxJamLengthInMeters="29.90" jamLengthInVehiclesSum="500" jamLengthInMetersSum="2989.89" meanHaltingDuration="1073.40" maxHaltingDuration="1077.00" haltingDurationSum="5367.00" meanIntervalHaltingDuration="100.00" maxIntervalHaltingDuration="100.00" intervalHaltingDurationSum="500.00" startedHalts="0.00" meanVehicleNumber="5.00" maxVehicleNumber="5" />
   <interval begin="25200.00" end="25300.00" id="e2_L197#2_3_0" sampledSeconds="500.00" nVehEntered="0" nVehLeft="0" nVehSeen="5" meanSpeed="0.00" meanTimeLoss="100.00" meanOccupancy="68.05" maxOccupancy="68.05" meanMaxJamLengthInVehicles="5.00" meanMaxJamLengthInMeters="29.90" maxJamLengthInVehicles="5" maxJamLengthInMeters="29.90" jamLengthInVehiclesSum="500" jamLengthInMetersSum="2989.89" meanHaltingDuration="1173.40" maxHaltingDuration="1177.00" haltingDurationSum="5867.00" meanIntervalHaltingDuration="100.00" maxIntervalHaltingDuration="100.00" intervalHaltingDurationSum="500.00" startedHalts="0.00" meanVehicleNumber="5.00" maxVehicleNumber="5" />
   <interval begin="25300.00" end="25400.00" id="e2_L197#2_3_0" sampledSeconds="500.00" nVehEntered="0" nVehLeft="0" nVehSeen="5" meanSpeed="0.00" meanTimeLoss="100.00" meanOccupancy="68.05" maxOccupancy="68.05" meanMaxJamLengthInVehicles="5.00" meanMaxJamLengthInMeters="29.90" maxJamLengthInVehicles="5" maxJamLengthInMeters="29.90" jamLengthInVehiclesSum="500" jamLengthInMetersSum="2989.89" meanHaltingDuration="1273.40" maxHaltingDuration="1277.00" haltingDurationSum="6367.00" meanIntervalHaltingDuration="100.00" maxIntervalHaltingDuration="100.00" intervalHaltingDurationSum="500.00" startedHalts="0.00" meanVehicleNumber="5.00" maxVehicleNumber="5" />
   <interval begin="25400.00" end="25500.00" id="e2_L197#2_3_0" sampledSeconds="430.74" nVehEntered="8" nVehLeft="9" nVehSeen="13" meanSpeed="0.62" meanTimeLoss="31.49" meanOccupancy="58.38" maxOccupancy="68.05" meanMaxJamLengthInVehicles="3.30" meanMaxJamLengthInMeters="19.34" maxJamLengthInVehicles="5" maxJamLengthInMeters="31.16" jamLengthInVehiclesSum="332" jamLengthInMetersSum="1939.94" meanHaltingDuration="299.67" maxHaltingDuration="1303.00" haltingDurationSum="5394.00" meanIntervalHaltingDuration="16.89" maxIntervalHaltingDuration="32.00" intervalHaltingDurationSum="304.00" startedHalts="15.00" meanVehicleNumber="4.37" maxVehicleNumber="5" />
   <interval begin="25500.00" end="25600.00" id="e2_L197#2_3_0" sampledSeconds="463.54" nVehEntered="3" nVehLeft="5" nVehSeen="7" meanSpeed="0.31" meanTimeLoss="64.58" meanOccupancy="60.88" maxOccupancy="65.05" meanMaxJamLengthInVehicles="4.11" meanMaxJamLengthInMeters="23.87" maxJamLengthInVehicles="5" maxJamLengthInMeters="31.08" jamLengthInVehiclesSum="414" jamLengthInMetersSum="2395.54" meanHaltingDuration="33.08" maxHaltingDuration="57.00" haltingDurationSum="430.00" meanIntervalHaltingDuration="32.69" maxIntervalHaltingDuration="57.00" intervalHaltingDurationSum="425.00" startedHalts="11.00" meanVehicleNumber="4.68" maxVehicleNumber="5" />
   <interval begin="25600.00" end="25700.00" id="e2_L197#2_3_0" sampledSeconds="411.94" nVehEntered="12" nVehLeft="9" nVehSeen="14" meanSpeed="0.80" meanTimeLoss="27.53" meanOccupancy="55.53" maxOccupancy="65.05" meanMaxJamLengthInVehicles="2.93" meanMaxJamLengthInMeters="16.86" maxJamLengthInVehicles="5" maxJamLengthInMeters="29.00" jamLengthInVehiclesSum="293" jamLengthInMetersSum="1686.11" meanHaltingDuration="13.04" maxHaltingDuration="59.00" haltingDurationSum="313.00" meanIntervalHaltingDuration="13.04" maxIntervalHaltingDuration="59.00" intervalHaltingDurationSum="313.00" startedHalts="26.00" meanVehicleNumber="4.21" maxVehicleNumber="5" />
   <interval begin="25700.00" end="25800.00" id="e2_L197#2_3_0" sampledSeconds="500.00" nVehEntered="0" nVehLeft="0" nVehSeen="5" meanSpeed="0.00" meanTimeLoss="100.00" meanOccupancy="65.05" maxOccupancy="65.05" meanMaxJamLengthInVehicles="5.00" meanMaxJamLengthInMeters="29.00" maxJamLengthInVehicles="5" maxJamLengthInMeters="29.00" jamLengthInVehiclesSum="500" jamLengthInMetersSum="2899.90" meanHaltingDuration="156.00" maxHaltingDuration="159.00" haltingDurationSum="780.00" meanIntervalHaltingDuration="100.00" maxIntervalHaltingDuration="100.00" intervalHaltingDurationSum="500.00" startedHalts="0.00" meanVehicleNumber="5.00" maxVehicleNumber="5" />
   <interval begin="25800.00" end="25900.00" id="e2_L197#2_3_0" sampledSeconds="490.82" nVehEntered="1" nVehLeft="1" nVehSeen="6" meanSpeed="0.06" meanTimeLoss="81.39" meanOccupancy="64.22" maxOccupancy="65.05" meanMaxJamLengthInVehicles="4.78" meanMaxJamLengthInMeters="27.80" maxJamLengthInVehicles="5" maxJamLengthInMeters="30.64" jamLengthInVehiclesSum="479" jamLengthInMetersSum="2782.81" meanHaltingDuration="117.33" maxHaltingDuration="208.00" haltingDurationSum="1056.00" meanIntervalHaltingDuration="48.33" maxIntervalHaltingDuration="54.00" intervalHaltingDurationSum="435.00" startedHalts="5.00" meanVehicleNumber="4.91" maxVehicleNumber="5" />