<?xml version="1.0" encoding="UTF-8"?>

<!-- generated on Sun Feb 17 15:57:00 2019 by 
<configuration xmlns:xsi="http://www.w3.org/2001/XMLSchema-instance" xsi:noNamespaceSchemaLocation="http://sumo.dlr.de/xsd/Configuration.xsd">

    <input>
        <net-file value="/home/sda/Documents/sumo-sathorn-ray/models/sathorn-morning/sathorn_w_fixed_20160404.net.xml"/>
        <route-files value="/home/sda/Documents/sumo-sathorn-ray/models/sathorn-morning/Great-route/sathorn_w_20160422edit2.rou.xml"/>
        <additional-files value="/home/sda/Documents/sumo-sathorn-ray/models/sathorn-morning/sathon_wide_tls_20160418_edited.add.xml,/home/sda/Documents/sumo-sathorn-ray/detectors/sathorn_w_detectors.add.xml"/>
    </input>

    <time>
        <begin value="21600"/>
        <end value="32400"/>
        <step-length value="1"/>
    </time>

    <processing>
        <no-internal-links value="true"/>
        <ignore-junction-blocker value="-1"/>
        <time-to-teleport value="-1"/>
        <eager-insert value="true"/>
        <time-to-impatience value="300"/>
    </processing>

    <report>
        <no-warnings value="true"/>
    </report>

    <random_number>
        <random value="false"/>
        <seed value="20"/>
    </random_number>

    <gui_only>
        <gui-settings-file value="/home/sda/Documents/sumo-sathorn-ray/gui-settings/gui-settings-file-surasak.xml"/>
        <quit-on-end value="true"/>
        <start value="true"/>
        <tracker-interval value="1"/>
    </gui_only>

</configuration>
-->

<detector xmlns:xsi="http://www.w3.org/2001/XMLSchema-instance" xsi:noNamespaceSchemaLocation="http://sumo.dlr.de/xsd/det_e2_file.xsd">
   <interval begin="21600.00" end="21700.00" id="e2_L197#2_2_1" sampledSeconds="0.00" nVehEntered="0" nVehLeft="0" nVehSeen="0" meanSpeed="-1.00" meanTimeLoss="-1.00" meanOccupancy="0.00" maxOccupancy="0.00" meanMaxJamLengthInVehicles="0.00" meanMaxJamLengthInMeters="0.00" maxJamLengthInVehicles="0" maxJamLengthInMeters="0.00" jamLengthInVehiclesSum="0" jamLengthInMetersSum="0.00" meanHaltingDuration="0.00" maxHaltingDuration="0.00" haltingDurationSum="0.00" meanIntervalHaltingDuration="0.00" maxIntervalHaltingDuration="0.00" intervalHaltingDurationSum="0.00" startedHalts="0.00" meanVehicleNumber="0.00" maxVehicleNumber="0" />
   <interval begin="21700.00" end="21800.00" id="e2_L197#2_2_1" sampledSeconds="0.00" nVehEntered="0" nVehLeft="0" nVehSeen="0" meanSpeed="-1.00" meanTimeLoss="-1.00" meanOccupancy="0.00" maxOccupancy="0.00" meanMaxJamLengthInVehicles="0.00" meanMaxJamLengthInMeters="0.00" maxJamLengthInVehicles="0" maxJamLengthInMeters="0.00" jamLengthInVehiclesSum="0" jamLengthInMetersSum="0.00" meanHaltingDuration="0.00" maxHaltingDuration="0.00" haltingDurationSum="0.00" meanIntervalHaltingDuration="0.00" maxIntervalHaltingDuration="0.00" intervalHaltingDurationSum="0.00" startedHalts="0.00" meanVehicleNumber="0.00" maxVehicleNumber="0" />
   <interval begin="21800.00" end="21900.00" id="e2_L197#2_2_1" sampledSeconds="5.37" nVehEntered="2" nVehLeft="1" nVehSeen="2" meanSpeed="11.81" meanTimeLoss="0.15" meanOccupancy="0.67" maxOccupancy="11.92" meanMaxJamLengthInVehicles="0.00" meanMaxJamLengthInMeters="0.00" maxJamLengthInVehicles="0" maxJamLengthInMeters="0.00" jamLengthInVehiclesSum="0" jamLengthInMetersSum="0.00" meanHaltingDuration="0.00" maxHaltingDuration="0.00" haltingDurationSum="0.00" meanIntervalHaltingDuration="0.00" maxIntervalHaltingDuration="0.00" intervalHaltingDurationSum="0.00" startedHalts="0.00" meanVehicleNumber="0.07" maxVehicleNumber="2" />
   <interval begin="21900.00" end="22000.00" id="e2_L197#2_2_1" sampledSeconds="197.77" nVehEntered="24" nVehLeft="21" nVehSeen="25" meanSpeed="2.49" meanTimeLoss="6.33" meanOccupancy="21.78" maxOccupancy="45.02" meanMaxJamLengthInVehicles="1.24" meanMaxJamLengthInMeters="7.16" maxJamLengthInVehicles="4" maxJamLengthInMeters="25.74" jamLengthInVehiclesSum="124" jamLengthInMetersSum="716.50" meanHaltingDuration="21.67" maxHaltingDuration="35.00" haltingDurationSum="130.00" meanIntervalHaltingDuration="21.67" maxIntervalHaltingDuration="35.00" intervalHaltingDurationSum="130.00" startedHalts="8.00" meanVehicleNumber="2.09" maxVehicleNumber="4" />
   <interval begin="22000.00" end="22100.00" id="e2_L197#2_2_1" sampledSeconds="569.62" nVehEntered="3" nVehLeft="1" nVehSeen="7" meanSpeed="0.04" meanTimeLoss="81.13" meanOccupancy="65.26" maxOccupancy="68.86" meanMaxJamLengthInVehicles="5.63" meanMaxJamLengthInMeters="36.99" maxJamLengthInVehicles="6" maxJamLengthInMeters="39.66" jamLengthInVehiclesSum="563" jamLengthInMetersSum="3699.26" meanHaltingDuration="108.50" maxHaltingDuration="135.00" haltingDurationSum="651.00" meanIntervalHaltingDuration="94.17" maxIntervalHaltingDuration="100.00" intervalHaltingDurationSum="565.00" startedHalts="2.00" meanVehicleNumber="5.71" maxVehicleNumber="6" />
   <interval begin="22100.00" end="22200.00" id="e2_L197#2_2_1" sampledSeconds="600.00" nVehEntered="0" nVehLeft="0" nVehSeen="6" meanSpeed="0.00" meanTimeLoss="100.00" meanOccupancy="68.86" maxOccupancy="68.86" meanMaxJamLengthInVehicles="6.00" meanMaxJamLengthInMeters="39.58" maxJamLengthInVehicles="6" maxJamLengthInMeters="39.58" jamLengthInVehiclesSum="600" jamLengthInMetersSum="3957.53" meanHaltingDuration="208.50" maxHaltingDuration="235.00" haltingDurationSum="1251.00" meanIntervalHaltingDuration="100.00" maxIntervalHaltingDuration="100.00" intervalHaltingDurationSum="600.00" startedHalts="0.00" meanVehicleNumber="6.00" maxVehicleNumber="6" />
   <interval begin="22200.00" end="22300.00" id="e2_L197#2_2_1" sampledSeconds="592.61" nVehEntered="1" nVehLeft="1" nVehSeen="7" meanSpeed="0.07" meanTimeLoss="84.16" meanOccupancy="67.65" maxOccupancy="68.87" meanMaxJamLengthInVehicles="5.74" meanMaxJamLengthInMeters="37.92" maxJamLengthInVehicles="6" maxJamLengthInMeters="41.38" jamLengthInVehiclesSum="578" jamLengthInMetersSum="3806.58" meanHaltingDuration="141.23" maxHaltingDuration="289.00" haltingDurationSum="1836.00" meanIntervalHaltingDuration="45.00" maxIntervalHaltingDuration="62.00" intervalHaltingDurationSum="585.00" startedHalts="7.00" meanVehicleNumber="5.93" maxVehicleNumber="6" />
   <interval begin="22300.00" end="22400.00" id="e2_L197#2_2_1" sampledSeconds="592.23" nVehEntered="1" nVehLeft="1" nVehSeen="7" meanSpeed="0.07" meanTimeLoss="84.11" meanOccupancy="67.55" maxOccupancy="68.87" meanMaxJamLengthInVehicles="5.84" meanMaxJamLengthInMeters="38.75" maxJamLengthInVehicles="6" maxJamLengthInMeters="41.49" jamLengthInVehiclesSum="585" jamLengthInMetersSum="3880.02" meanHaltingDuration="82.60" maxHaltingDuration="139.00" haltingDurationSum="826.00" meanIntervalHaltingDuration="58.90" maxIntervalHaltingDuration="100.00" intervalHaltingDurationSum="589.00" startedHalts="4.00" meanVehicleNumber="5.93" maxVehicleNumber="6" />
   <interval begin="22400.00" end="22500.00" id="e2_L197#2_2_1" sampledSeconds="600.00" nVehEntered="0" nVehLeft="0" nVehSeen="6" meanSpeed="0.00" meanTimeLoss="100.00" meanOccupancy="68.87" maxOccupancy="68.87" meanMaxJamLengthInVehicles="6.00" meanMaxJamLengthInMeters="39.58" maxJamLengthInVehicles="6" maxJamLengthInMeters="39.58" jamLengthInVehiclesSum="600" jamLengthInMetersSum="3957.52" meanHaltingDuration="192.67" maxHaltingDuration="239.00" haltingDurationSum="1156.00" meanIntervalHaltingDuration="100.00" maxIntervalHaltingDuration="100.00" intervalHaltingDurationSum="600.00" startedHalts="0.00" meanVehicleNumber="6.00" maxVehicleNumber="6" />
   <interval begin="22500.00" end="22600.00" id="e2_L197#2_2_1" sampledSeconds="600.00" nVehEntered="0" nVehLeft="0" nVehSeen="6" meanSpeed="0.00" meanTimeLoss="100.00" meanOccupancy="68.87" maxOccupancy="68.87" meanMaxJamLengthInVehicles="6.00" meanMaxJamLengthInMeters="39.58" maxJamLengthInVehicles="6" maxJamLengthInMeters="39.58" jamLengthInVehiclesSum="600" jamLengthInMetersSum="3957.52" meanHaltingDuration="292.67" maxHaltingDuration="339.00" haltingDurationSum="1756.00" meanIntervalHaltingDuration="100.00" maxIntervalHaltingDuration="100.00" intervalHaltingDurationSum="600.00" startedHalts="0.00" meanVehicleNumber="6.00" maxVehicleNumber="6" />
   <interval begin="22600.00" end="22700.00" id="e2_L197#2_2_1" sampledSeconds="600.00" nVehEntered="0" nVehLeft="0" nVehSeen="6" meanSpeed="0.00" meanTimeLoss="100.00" meanOccupancy="68.87" maxOccupancy="68.87" meanMaxJamLengthInVehicles="6.00" meanMaxJamLengthInMeters="39.58" maxJamLengthInVehicles="6" maxJamLengthInMeters="39.58" jamLengthInVehiclesSum="600" jamLengthInMetersSum="3957.52" meanHaltingDuration="392.67" maxHaltingDuration="439.00" haltingDurationSum="2356.00" meanIntervalHaltingDuration="100.00" maxIntervalHaltingDuration="100.00" intervalHaltingDurationSum="600.00" startedHalts="0.00" meanVehicleNumber="6.00" maxVehicleNumber="6" />
   <interval begin="22700.00" end="22800.00" id="e2_L197#2_2_1" sampledSeconds="600.00" nVehEntered="0" nVehLeft="0" nVehSeen="6" meanSpeed="0.00" meanTimeLoss="100.00" meanOccupancy="68.87" maxOccupancy="68.87" meanMaxJamLengthInVehicles="6.00" meanMaxJamLengthInMeters="39.58" maxJamLengthInVehicles="6" maxJamLengthInMeters="39.58" jamLengthInVehiclesSum="600" jamLengthInMetersSum="3957.52" meanHaltingDuration="492.67" maxHaltingDuration="539.00" haltingDurationSum="2956.00" meanIntervalHaltingDuration="100.00" maxIntervalHaltingDuration="100.00" intervalHaltingDurationSum="600.00" startedHalts="0.00" meanVehicleNumber="6.00" maxVehicleNumber="6" />
   <interval begin="22800.00" end="22900.00" id="e2_L197#2_2_1" sampledSeconds="600.00" nVehEntered="0" nVehLeft="0" nVehSeen="6" meanSpeed="0.00" meanTimeLoss="100.00" meanOccupancy="68.87" maxOccupancy="68.87" meanMaxJamLengthInVehicles="6.00" meanMaxJamLengthInMeters="39.58" maxJamLengthInVehicles="6" maxJamLengthInMeters="39.58" jamLengthInVehiclesSum="600" jamLengthInMetersSum="3957.52" meanHaltingDuration="592.67" maxHaltingDuration="639.00" haltingDurationSum="3556.00" meanIntervalHaltingDuration="100.00" maxIntervalHaltingDuration="100.00" intervalHaltingDurationSum="600.00" startedHalts="0.00" meanVehicleNumber="6.00" maxVehicleNumber="6" />
   <interval begin="22900.00" end="23000.00" id="e2_L197#2_2_1" sampledSeconds="600.00" nVehEntered="0" nVehLeft="0" nVehSeen="6" meanSpeed="0.00" meanTimeLoss="100.00" meanOccupancy="68.87" maxOccupancy="68.87" meanMaxJamLengthInVehicles="6.00" meanMaxJamLengthInMeters="39.58" maxJamLengthInVehicles="6" maxJamLengthInMeters="39.58" jamLengthInVehiclesSum="600" jamLengthInMetersSum="3957.52" meanHaltingDuration="692.67" maxHaltingDuration="739.00" haltingDurationSum="4156.00" meanIntervalHaltingDuration="100.00" maxIntervalHaltingDuration="100.00" intervalHaltingDurationSum="600.00" startedHalts="0.00" meanVehicleNumber="6.00" maxVehicleNumber="6" />
   <interval begin="23000.00" end="23100.00" id="e2_L197#2_2_1" sampledSeconds="600.00" nVehEntered="0" nVehLeft="0" nVehSeen="6" meanSpeed="0.00" meanTimeLoss="100.00" meanOccupancy="68.87" maxOccupancy="68.87" meanMaxJamLengthInVehicles="6.00" meanMaxJamLengthInMeters="39.58" maxJamLengthInVehicles="6" maxJamLengthInMeters="39.58" jamLengthInVehiclesSum="600" jamLengthInMetersSum="3957.52" meanHaltingDuration="792.67" maxHaltingDuration="839.00" haltingDurationSum="4756.00" meanIntervalHaltingDuration="100.00" maxIntervalHaltingDuration="100.00" intervalHaltingDurationSum="600.00" startedHalts="0.00" meanVehicleNumber="6.00" maxVehicleNumber="6" />
   <interval begin="23100.00" end="23200.00" id="e2_L197#2_2_1" sampledSeconds="600.00" nVehEntered="0" nVehLeft="0" nVehSeen="6" meanSpeed="0.00" meanTimeLoss="100.00" meanOccupancy="68.87" maxOccupancy="68.87" meanMaxJamLengthInVehicles="6.00" meanMaxJamLengthInMeters="39.58" maxJamLengthInVehicles="6" maxJamLengthInMeters="39.58" jamLengthInVehiclesSum="600" jamLengthInMetersSum="3957.52" meanHaltingDuration="892.67" maxHaltingDuration="939.00" haltingDurationSum="5356.00" meanIntervalHaltingDuration="100.00" maxIntervalHaltingDuration="100.00" intervalHaltingDurationSum="600.00" startedHalts="0.00" meanVehicleNumber="6.00" maxVehicleNumber="6" />
   <interval begin="23200.00" end="23300.00" id="e2_L197#2_2_1" sampledSeconds="600.00" nVehEntered="0" nVehLeft="0" nVehSeen="6" meanSpeed="0.00" meanTimeLoss="100.00" meanOccupancy="68.87" maxOccupancy="68.87" meanMaxJamLengthInVehicles="6.00" meanMaxJamLengthInMeters="39.58" maxJamLengthInVehicles="6" maxJamLengthInMeters="39.58" jamLengthInVehiclesSum="600" jamLengthInMetersSum="3957.52" meanHaltingDuration="992.67" maxHaltingDuration="1039.00" haltingDurationSum="5956.00" meanIntervalHaltingDuration="100.00" maxIntervalHaltingDuration="100.00" intervalHaltingDurationSum="600.00" startedHalts="0.00" meanVehicleNumber="6.00" maxVehicleNumber="6" />
   <interval begin="23300.00" end="23400.00" id="e2_L197#2_2_1" sampledSeconds="600.00" nVehEntered="0" nVehLeft="0" nVehSeen="6" meanSpeed="0.00" meanTimeLoss="100.00" meanOccupancy="68.87" maxOccupancy="68.87" meanMaxJamLengthInVehicles="6.00" meanMaxJamLengthInMeters="39.58" maxJamLengthInVehicles="6" maxJamLengthInMeters="39.58" jamLengthInVehiclesSum="600" jamLengthInMetersSum="3957.52" meanHaltingDuration="1092.67" maxHaltingDuration="1139.00" haltingDurationSum="6556.00" meanIntervalHaltingDuration="100.00" maxIntervalHaltingDuration="100.00" intervalHaltingDurationSum="600.00" startedHalts="0.00" meanVehicleNumber="6.00" maxVehicleNumber="6" />
   <interval begin="23400.00" end="23500.00" id="e2_L197#2_2_1" sampledSeconds="582.56" nVehEntered="2" nVehLeft="2" nVehSeen="8" meanSpeed="0.15" meanTimeLoss="71.95" meanOccupancy="66.49" maxOccupancy="68.87" meanMaxJamLengthInVehicles="5.56" meanMaxJamLengthInMeters="36.76" maxJamLengthInVehicles="6" maxJamLengthInMeters="41.08" jamLengthInVehiclesSum="556" jamLengthInMetersSum="3675.53" meanHaltingDuration="593.17" maxHaltingDuration="1183.00" haltingDurationSum="7118.00" meanIntervalHaltingDuration="46.83" maxIntervalHaltingDuration="52.00" intervalHaltingDurationSum="562.00" startedHalts="6.00" meanVehicleNumber="5.84" maxVehicleNumber="6" />
   <interval begin="23500.00" end="23600.00" id="e2_L197#2_2_1" sampledSeconds="600.00" nVehEntered="0" nVehLeft="0" nVehSeen="6" meanSpeed="0.00" meanTimeLoss="100.00" meanOccupancy="68.86" maxOccupancy="68.86" meanMaxJamLengthInVehicles="6.00" meanMaxJamLengthInMeters="39.58" maxJamLengthInVehicles="6" maxJamLengthInMeters="39.58" jamLengthInVehiclesSum="600" jamLengthInMetersSum="3957.52" meanHaltingDuration="148.50" maxHaltingDuration="152.00" haltingDurationSum="891.00" meanIntervalHaltingDuration="100.00" maxIntervalHaltingDuration="100.00" intervalHaltingDurationSum="600.00" startedHalts="0.00" meanVehicleNumber="6.00" maxVehicleNumber="6" />
   <interval begin="23600.00" end="23700.00" id="e2_L197#2_2_1" sampledSeconds="600.00" nVehEntered="0" nVehLeft="0" nVehSeen="6" meanSpeed="0.00" meanTimeLoss="100.00" meanOccupancy="68.86" maxOccupancy="68.86" meanMaxJamLengthInVehicles="6.00" meanMaxJamLengthInMeters="39.58" maxJamLengthInVehicles="6" maxJamLengthInMeters="39.58" jamLengthInVehiclesSum="600" jamLengthInMetersSum="3957.52" meanHaltingDuration="248.50" maxHaltingDuration="252.00" haltingDurationSum="1491.00" meanIntervalHaltingDuration="100.00" maxIntervalHaltingDuration="100.00" intervalHaltingDurationSum="600.00" startedHalts="0.00" meanVehicleNumber="6.00" maxVehicleNumber="6" />
   <interval begin="23700.00" end="23800.00" id="e2_L197#2_2_1" sampledSeconds="600.00" nVehEntered="0" nVehLeft="0" nVehSeen="6" meanSpeed="0.00" meanTimeLoss="100.00" meanOccupancy="68.86" maxOccupancy="68.86" meanMaxJamLengthInVehicles="6.00" meanMaxJamLengthInMeters="39.58" maxJamLengthInVehicles="6" maxJamLengthInMeters="39.58" jamLengthInVehiclesSum="600" jamLengthInMetersSum="3957.52" meanHaltingDuration="348.50" maxHaltingDuration="352.00" haltingDurationSum="2091.00" meanIntervalHaltingDuration="100.00" maxIntervalHaltingDuration="100.00" intervalHaltingDurationSum="600.00" startedHalts="0.00" meanVehicleNumber="6.00" maxVehicleNumber="6" />
   <interval begin="23800.00" end="23900.00" id="e2_L197#2_2_1" sampledSeconds="591.72" nVehEntered="1" nVehLeft="1" nVehSeen="7" meanSpeed="0.08" meanTimeLoss="83.97" meanOccupancy="66.20" maxOccupancy="68.86" meanMaxJamLengthInVehicles="5.67" meanMaxJamLengthInMeters="37.42" maxJamLengthInVehicles="6" maxJamLengthInMeters="40.69" jamLengthInVehiclesSum="576" jamLengthInMetersSum="3782.01" meanHaltingDuration="191.07" maxHaltingDuration="385.00" haltingDurationSum="2675.00" meanIntervalHaltingDuration="41.71" maxIntervalHaltingDuration="66.00" intervalHaltingDurationSum="584.00" startedHalts="8.00" meanVehicleNumber="5.93" maxVehicleNumber="6" />
   <interval begin="23900.00" end="24000.00" id="e2_L197#2_2_1" sampledSeconds="584.06" nVehEntered="2" nVehLeft="2" nVehSeen="8" meanSpeed="0.14" meanTimeLoss="72.19" meanOccupancy="64.91" maxOccupancy="68.87" meanMaxJamLengthInVehicles="5.50" meanMaxJamLengthInMeters="36.26" maxJamLengthInVehicles="6" maxJamLengthInMeters="40.82" jamLengthInVehiclesSum="551" jamLengthInMetersSum="3626.92" meanHaltingDuration="62.00" maxHaltingDuration="139.00" haltingDurationSum="930.00" meanIntervalHaltingDuration="37.33" maxIntervalHaltingDuration="79.00" intervalHaltingDurationSum="560.00" startedHalts="9.00" meanVehicleNumber="5.86" maxVehicleNumber="6" />
   <interval begin="24000.00" end="24100.00" id="e2_L197#2_2_1" sampledSeconds="600.00" nVehEntered="0" nVehLeft="0" nVehSeen="6" meanSpeed="0.00" meanTimeLoss="100.00" meanOccupancy="68.86" maxOccupancy="68.86" meanMaxJamLengthInVehicles="6.00" meanMaxJamLengthInMeters="39.58" maxJamLengthInVehicles="6" maxJamLengthInMeters="39.58" jamLengthInVehiclesSum="600" jamLengthInMetersSum="3957.51" meanHaltingDuration="117.33" maxHaltingDuration="121.00" haltingDurationSum="704.00" meanIntervalHaltingDuration="100.00" maxIntervalHaltingDuration="100.00" intervalHaltingDurationSum="600.00" startedHalts="0.00" meanVehicleNumber="6.00" maxVehicleNumber="6" />
   <interval begin="24100.00" end="24200.00" id="e2_L197#2_2_1" sampledSeconds="592.82" nVehEntered="1" nVehLeft="1" nVehSeen="7" meanSpeed="0.07" meanTimeLoss="84.19" meanOccupancy="67.56" maxOccupancy="68.87" meanMaxJamLengthInVehicles="5.84" meanMaxJamLengthInMeters="38.80" maxJamLengthInVehicles="6" maxJamLengthInMeters="44.19" jamLengthInVehiclesSum="587" jamLengthInMetersSum="3896.72" meanHaltingDuration="127.67" maxHaltingDuration="219.00" haltingDurationSum="1149.00" meanIntervalHaltingDuration="62.89" maxIntervalHaltingDuration="100.00" intervalHaltingDurationSum="566.00" startedHalts="4.00" meanVehicleNumber="5.94" maxVehicleNumber="6" />
   <interval begin="24200.00" end="24300.00" id="e2_L197#2_2_1" sampledSeconds="600.00" nVehEntered="0" nVehLeft="0" nVehSeen="6" meanSpeed="0.00" meanTimeLoss="100.00" meanOccupancy="68.86" maxOccupancy="68.86" meanMaxJamLengthInVehicles="6.00" meanMaxJamLengthInMeters="39.58" maxJamLengthInVehicles="6" maxJamLengthInMeters="39.58" jamLengthInVehiclesSum="600" jamLengthInMetersSum="3957.51" meanHaltingDuration="219.83" maxHaltingDuration="319.00" haltingDurationSum="1319.00" meanIntervalHaltingDuration="100.00" maxIntervalHaltingDuration="100.00" intervalHaltingDurationSum="600.00" startedHalts="0.00" meanVehicleNumber="6.00" maxVehicleNumber="6" />
   <interval begin="24300.00" end="24400.00" id="e2_L197#2_2_1" sampledSeconds="600.00" nVehEntered="0" nVehLeft="0" nVehSeen="6" meanSpeed="0.00" meanTimeLoss="100.00" meanOccupancy="68.86" maxOccupancy="68.86" meanMaxJamLengthInVehicles="6.00" meanMaxJamLengthInMeters="39.58" maxJamLengthInVehicles="6" maxJamLengthInMeters="39.58" jamLengthInVehiclesSum="600" jamLengthInMetersSum="3957.51" meanHaltingDuration="319.83" maxHaltingDuration="419.00" haltingDurationSum="1919.00" meanIntervalHaltingDuration="100.00" maxIntervalHaltingDuration="100.00" intervalHaltingDurationSum="600.00" startedHalts="0.00" meanVehicleNumber="6.00" maxVehicleNumber="6" />
   <interval begin="24400.00" end="24500.00" id="e2_L197#2_2_1" sampledSeconds="600.00" nVehEntered="0" nVehLeft="0" nVehSeen="6" meanSpeed="0.00" meanTimeLoss="100.00" meanOccupancy="68.86" maxOccupancy="68.86" meanMaxJamLengthInVehicles="6.00" meanMaxJamLengthInMeters="39.58" maxJamLengthInVehicles="6" maxJamLengthInMeters="39.58" jamLengthInVehiclesSum="600" jamLengthInMetersSum="3957.51" meanHaltingDuration="419.83" maxHaltingDuration="519.00" haltingDurationSum="2519.00" meanIntervalHaltingDuration="100.00" maxIntervalHaltingDuration="100.00" intervalHaltingDurationSum="600.00" startedHalts="0.00" meanVehicleNumber="6.00" maxVehicleNumber="6" />
   <interval begin="24500.00" end="24600.00" id="e2_L197#2_2_1" sampledSeconds="600.00" nVehEntered="0" nVehLeft="0" nVehSeen="6" meanSpeed="0.00" meanTimeLoss="100.00" meanOccupancy="68.86" maxOccupancy="68.86" meanMaxJamLengthInVehicles="6.00" meanMaxJamLengthInMeters="39.58" maxJamLengthInVehicles="6" maxJamLengthInMeters="39.58" jamLengthInVehiclesSum="600" jamLengthInMetersSum="3957.51" meanHaltingDuration="519.83" maxHaltingDuration="619.00" haltingDurationSum="3119.00" meanIntervalHaltingDuration="100.00" maxIntervalHaltingDuration="100.00" intervalHaltingDurationSum="600.00" startedHalts="0.00" meanVehicleNumber="6.00" maxVehicleNumber="6" />
   <interval begin="24600.00" end="24700.00" id="e2_L197#2_2_1" sampledSeconds="600.00" nVehEntered="0" nVehLeft="0" nVehSeen="6" meanSpeed="0.00" meanTimeLoss="100.00" meanOccupancy="68.86" maxOccupancy="68.86" meanMaxJamLengthInVehicles="6.00" meanMaxJamLengthInMeters="39.58" maxJamLengthInVehicles="6" maxJamLengthInMeters="39.58" jamLengthInVehiclesSum="600" jamLengthInMetersSum="3957.51" meanHaltingDuration="619.83" maxHaltingDuration="719.00" haltingDurationSum="3719.00" meanIntervalHaltingDuration="100.00" maxIntervalHaltingDuration="100.00" intervalHaltingDurationSum="600.00" startedHalts="0.00" meanVehicleNumber="6.00" maxVehicleNumber="6" />
   <interval begin="24700.00" end="24800.00" id="e2_L197#2_2_1" sampledSeconds="600.00" nVehEntered="0" nVehLeft="0" nVehSeen="6" meanSpeed="0.01" meanTimeLoss="99.93" meanOccupancy="67.98" maxOccupancy="68.86" meanMaxJamLengthInVehicles="6.00" meanMaxJamLengthInMeters="39.64" maxJamLengthInVehicles="6" maxJamLengthInMeters="40.44" jamLengthInVehiclesSum="600" jamLengthInMetersSum="3964.43" meanHaltingDuration="719.83" maxHaltingDuration="819.00" haltingDurationSum="4319.00" meanIntervalHaltingDuration="100.00" maxIntervalHaltingDuration="100.00" intervalHaltingDurationSum="600.00" startedHalts="0.00" meanVehicleNumber="6.00" maxVehicleNumber="6" />
   <interval begin="24800.00" end="24900.00" id="e2_L197#2_2_1" sampledSeconds="600.00" nVehEntered="0" nVehLeft="0" nVehSeen="6" meanSpeed="0.00" meanTimeLoss="100.00" meanOccupancy="66.54" maxOccupancy="66.54" meanMaxJamLengthInVehicles="6.00" meanMaxJamLengthInMeters="39.58" maxJamLengthInVehicles="6" maxJamLengthInMeters="39.58" jamLengthInVehiclesSum="600" jamLengthInMetersSum="3957.52" meanHaltingDuration="819.83" maxHaltingDuration="919.00" haltingDurationSum="4919.00" meanIntervalHaltingDuration="100.00" maxIntervalHaltingDuration="100.00" intervalHaltingDurationSum="600.00" startedHalts="0.00" meanVehicleNumber="6.00" maxVehicleNumber="6" />
   <interval begin="24900.00" end="25000.00" id="e2_L197#2_2_1" sampledSeconds="600.00" nVehEntered="0" nVehLeft="0" nVehSeen="6" meanSpeed="0.00" meanTimeLoss="100.00" meanOccupancy="66.54" maxOccupancy="66.54" meanMaxJamLengthInVehicles="6.00" meanMaxJamLengthInMeters="39.58" maxJamLengthInVehicles="6" maxJamLengthInMeters="39.58" jamLengthInVehiclesSum="600" jamLengthInMetersSum="3957.52" meanHaltingDuration="919.83" maxHaltingDuration="1019.00" haltingDurationSum="5519.00" meanIntervalHaltingDuration="100.00" maxIntervalHaltingDuration="100.00" intervalHaltingDurationSum="600.00" startedHalts="0.00" meanVehicleNumber="6.00" maxVehicleNumber="6" />
   <interval begin="25000.00" end="25100.00" id="e2_L197#2_2_1" sampledSeconds="600.00" nVehEntered="0" nVehLeft="0" nVehSeen="6" meanSpeed="0.00" meanTimeLoss="100.00" meanOccupancy="66.54" maxOccupancy="66.54" meanMaxJamLengthInVehicles="6.00" meanMaxJamLengthInMeters="39.58" maxJamLengthInVehicles="6" maxJamLengthInMeters="39.58" jamLengthInVehiclesSum="600" jamLengthInMetersSum="3957.52" meanHaltingDuration="1019.83" maxHaltingDuration="1119.00" haltingDurationSum="6119.00" meanIntervalHaltingDuration="100.00" maxIntervalHaltingDuration="100.00" intervalHaltingDurationSum="600.00" startedHalts="0.00" meanVehicleNumber="6.00" maxVehicleNumber="6" />
   <interval begin="25100.00" end="25200.00" id="e2_L197#2_2_1" sampledSeconds="600.00" nVehEntered="0" nVehLeft="0" nVehSeen="6" meanSpeed="0.00" meanTimeLoss="100.00" meanOccupancy="66.54" maxOccupancy="66.54" meanMaxJamLengthInVehicles="6.00" meanMaxJamLengthInMeters="39.58" maxJamLengthInVehicles="6" maxJamLengthInMeters="39.58" jamLengthInVehiclesSum="600" jamLengthInMetersSum="3957.52" meanHaltingDuration="1119.83" maxHaltingDuration="1219.00" haltingDurationSum="6719.00" meanIntervalHaltingDuration="100.00" maxIntervalHaltingDuration="100.00" intervalHaltingDurationSum="600.00" startedHalts="0.00" meanVehicleNumber="6.00" maxVehicleNumber="6" />
   <interval begin="25200.00" end="25300.00" id="e2_L197#2_2_1" sampledSeconds="600.00" nVehEntered="0" nVehLeft="0" nVehSeen="6" meanSpeed="0.00" meanTimeLoss="100.00" meanOccupancy="66.54" maxOccupancy="66.54" meanMaxJamLengthInVehicles="6.00" meanMaxJamLengthInMeters="39.58" maxJamLengthInVehicles="6" maxJamLengthInMeters="39.58" jamLengthInVehiclesSum="600" jamLengthInMetersSum="3957.52" meanHaltingDuration="1219.83" maxHaltingDuration="1319.00" haltingDurationSum="7319.00" meanIntervalHaltingDuration="100.00" maxIntervalHaltingDuration="100.00" intervalHaltingDurationSum="600.00" startedHalts="0.00" meanVehicleNumber="6.00" maxVehicleNumber="6" />
   <interval begin="25300.00" end="25400.00" id="e2_L197#2_2_1" sampledSeconds="600.00" nVehEntered="0" nVehLeft="0" nVehSeen="6" meanSpeed="0.00" meanTimeLoss="100.00" meanOccupancy="66.54" maxOccupancy="66.54" meanMaxJamLengthInVehicles="6.00" meanMaxJamLengthInMeters="39.58" maxJamLengthInVehicles="6" maxJamLengthInMeters="39.58" jamLengthInVehiclesSum="600" jamLengthInMetersSum="3957.52" meanHaltingDuration="1319.83" maxHaltingDuration="1419.00" haltingDurationSum="7919.00" meanIntervalHaltingDuration="100.00" maxIntervalHaltingDuration="100.00" intervalHaltingDurationSum="600.00" startedHalts="0.00" meanVehicleNumber="6.00" maxVehicleNumber="6" />
   <interval begin="25400.00" end="25500.00" id="e2_L197#2_2_1" sampledSeconds="541.51" nVehEntered="6" nVehLeft="9" nVehSeen="12" meanSpeed="0.58" meanTimeLoss="43.01" meanOccupancy="59.57" maxOccupancy="68.86" meanMaxJamLengthInVehicles="4.42" meanMaxJamLengthInMeters="29.42" maxJamLengthInVehicles="6" maxJamLengthInMeters="41.70" jamLengthInVehiclesSum="446" jamLengthInMetersSum="2954.98" meanHaltingDuration="399.05" maxHaltingDuration="1450.00" haltingDurationSum="8380.00" meanIntervalHaltingDuration="21.95" maxIntervalHaltingDuration="54.00" intervalHaltingDurationSum="461.00" startedHalts="16.00" meanVehicleNumber="5.49" maxVehicleNumber="6" />
   <interval begin="25500.00" end="25600.00" id="e2_L197#2_2_1" sampledSeconds="559.79" nVehEntered="6" nVehLeft="4" nVehSeen="9" meanSpeed="0.38" meanTimeLoss="60.28" meanOccupancy="63.18" maxOccupancy="68.87" meanMaxJamLengthInVehicles="4.73" meanMaxJamLengthInMeters="31.27" maxJamLengthInVehicles="6" maxJamLengthInMeters="41.03" jamLengthInVehiclesSum="476" jamLengthInMetersSum="3140.60" meanHaltingDuration="27.44" maxHaltingDuration="81.00" haltingDurationSum="494.00" meanIntervalHaltingDuration="27.44" maxIntervalHaltingDuration="81.00" intervalHaltingDurationSum="494.00" startedHalts="20.00" meanVehicleNumber="5.65" maxVehicleNumber="6" />
   <interval begin="25600.00" end="25700.00" id="e2_L197#2_2_1" sampledSeconds="494.29" nVehEntered="13" nVehLeft="12" nVehSeen="18" meanSpeed="1.11" meanTimeLoss="25.02" meanOccupancy="55.04" maxOccupancy="68.87" meanMaxJamLengthInVehicles="2.93" meanMaxJamLengthInMeters="19.17" maxJamLengthInVehicles="6" maxJamLengthInMeters="39.78" jamLengthInVehiclesSum="294" jamLengthInMetersSum="1921.20" meanHaltingDuration="16.47" maxHaltingDuration="54.00" haltingDurationSum="313.00" meanIntervalHaltingDuration="16.47" maxIntervalHaltingDuration="54.00" intervalHaltingDurationSum="313.00" startedHalts="19.00" meanVehicleNumber="5.08" maxVehicleNumber="6" />
   <interval begin="25700.00" end="25800.00" id="e2_L197#2_2_1" sampledSeconds="600.00" nVehEntered="0" nVehLeft="0" nVehSeen="6" meanSpeed="0.00" meanTimeLoss="100.00" meanOccupancy="68.86" maxOccupancy="68.86" meanMaxJamLengthInVehicles="6.00" meanMaxJamLengthInMeters="39.58" maxJamLengthInVehicles="6" maxJamLengthInMeters="39.58" jamLengthInVehiclesSum="600" jamLengthInMetersSum="3957.52" meanHaltingDuration="149.17" maxHaltingDuration="154.00" haltingDurationSum="895.00" meanIntervalHaltingDuration="100.00" maxIntervalHaltingDuration="100.00" intervalHaltingDurationSum="600.00" startedHalts="0.00" meanVehicleNumber="6.00" maxVehicleNumber="6" />
   <interval begin="25800.00" end="25900.00" id="e2_L197#2_2_1" sampledSeconds="591.75" nVehEntered="1" nVehLeft="1" nVehSeen="7" meanSpeed="0.07" meanTimeLoss="84.04" meanOccupancy="67.54" maxOccupancy="68.87" meanMaxJamLengthInVehicles="5.78" meanMaxJamLengthInMeters="38.34" maxJamLengthInVehicles="6" maxJamLengthInMeters="43.28" jamLengthInVehiclesSum="583" jamLengthInMetersSum="3857.73" meanHaltingDuration="127.30" maxHaltingDuration="253.00" haltingDurationSum="1273.00" meanIntervalHaltingDuration="53.20" maxIntervalHaltingDuration="100.00" intervalHaltingDurationSum="532.00" startedHalts="5.00" meanVehicleNumber="5.92" maxVehicleNumber="6" />