<?xml version="1.0" encoding="UTF-8"?>

<!-- generated on Sun Feb 17 15:57:00 2019 by 
<configuration xmlns:xsi="http://www.w3.org/2001/XMLSchema-instance" xsi:noNamespaceSchemaLocation="http://sumo.dlr.de/xsd/Configuration.xsd">

    <input>
        <net-file value="/home/sda/Documents/sumo-sathorn-ray/models/sathorn-morning/sathorn_w_fixed_20160404.net.xml"/>
        <route-files value="/home/sda/Documents/sumo-sathorn-ray/models/sathorn-morning/Great-route/sathorn_w_20160422edit2.rou.xml"/>
        <additional-files value="/home/sda/Documents/sumo-sathorn-ray/models/sathorn-morning/sathon_wide_tls_20160418_edited.add.xml,/home/sda/Documents/sumo-sathorn-ray/detectors/sathorn_w_detectors.add.xml"/>
    </input>

    <time>
        <begin value="21600"/>
        <end value="32400"/>
        <step-length value="1"/>
    </time>

    <processing>
        <no-internal-links value="true"/>
        <ignore-junction-blocker value="-1"/>
        <time-to-teleport value="-1"/>
        <eager-insert value="true"/>
        <time-to-impatience value="300"/>
    </processing>

    <report>
        <no-warnings value="true"/>
    </report>

    <random_number>
        <random value="false"/>
        <seed value="20"/>
    </random_number>

    <gui_only>
        <gui-settings-file value="/home/sda/Documents/sumo-sathorn-ray/gui-settings/gui-settings-file-surasak.xml"/>
        <quit-on-end value="true"/>
        <start value="true"/>
        <tracker-interval value="1"/>
    </gui_only>

</configuration>
-->

<detector xmlns:xsi="http://www.w3.org/2001/XMLSchema-instance" xsi:noNamespaceSchemaLocation="http://sumo.dlr.de/xsd/det_e2_file.xsd">
   <interval begin="21600.00" end="21700.00" id="e2_L193#1_1_2" sampledSeconds="0.00" nVehEntered="0" nVehLeft="0" nVehSeen="0" meanSpeed="-1.00" meanTimeLoss="-1.00" meanOccupancy="0.00" maxOccupancy="0.00" meanMaxJamLengthInVehicles="0.00" meanMaxJamLengthInMeters="0.00" maxJamLengthInVehicles="0" maxJamLengthInMeters="0.00" jamLengthInVehiclesSum="0" jamLengthInMetersSum="0.00" meanHaltingDuration="0.00" maxHaltingDuration="0.00" haltingDurationSum="0.00" meanIntervalHaltingDuration="0.00" maxIntervalHaltingDuration="0.00" intervalHaltingDurationSum="0.00" startedHalts="0.00" meanVehicleNumber="0.00" maxVehicleNumber="0" />
   <interval begin="21700.00" end="21800.00" id="e2_L193#1_1_2" sampledSeconds="0.00" nVehEntered="0" nVehLeft="0" nVehSeen="0" meanSpeed="-1.00" meanTimeLoss="-1.00" meanOccupancy="0.00" maxOccupancy="0.00" meanMaxJamLengthInVehicles="0.00" meanMaxJamLengthInMeters="0.00" maxJamLengthInVehicles="0" maxJamLengthInMeters="0.00" jamLengthInVehiclesSum="0" jamLengthInMetersSum="0.00" meanHaltingDuration="0.00" maxHaltingDuration="0.00" haltingDurationSum="0.00" meanIntervalHaltingDuration="0.00" maxIntervalHaltingDuration="0.00" intervalHaltingDurationSum="0.00" startedHalts="0.00" meanVehicleNumber="0.00" maxVehicleNumber="0" />
   <interval begin="21800.00" end="21900.00" id="e2_L193#1_1_2" sampledSeconds="115.91" nVehEntered="6" nVehLeft="6" nVehSeen="6" meanSpeed="11.72" meanTimeLoss="1.21" meanOccupancy="2.24" maxOccupancy="11.75" meanMaxJamLengthInVehicles="0.00" meanMaxJamLengthInMeters="0.00" maxJamLengthInVehicles="0" maxJamLengthInMeters="0.00" jamLengthInVehiclesSum="0" jamLengthInMetersSum="0.00" meanHaltingDuration="0.00" maxHaltingDuration="0.00" haltingDurationSum="0.00" meanIntervalHaltingDuration="0.00" maxIntervalHaltingDuration="0.00" intervalHaltingDurationSum="0.00" startedHalts="0.00" meanVehicleNumber="1.21" maxVehicleNumber="6" />
   <interval begin="21900.00" end="22000.00" id="e2_L193#1_1_2" sampledSeconds="185.00" nVehEntered="12" nVehLeft="11" nVehSeen="12" meanSpeed="11.74" meanTimeLoss="0.85" meanOccupancy="3.58" maxOccupancy="11.75" meanMaxJamLengthInVehicles="0.00" meanMaxJamLengthInMeters="0.00" maxJamLengthInVehicles="0" maxJamLengthInMeters="0.00" jamLengthInVehiclesSum="0" jamLengthInMetersSum="0.00" meanHaltingDuration="0.00" maxHaltingDuration="0.00" haltingDurationSum="0.00" meanIntervalHaltingDuration="0.00" maxIntervalHaltingDuration="0.00" intervalHaltingDurationSum="0.00" startedHalts="0.00" meanVehicleNumber="1.93" maxVehicleNumber="6" />
   <interval begin="22000.00" end="22100.00" id="e2_L193#1_1_2" sampledSeconds="363.07" nVehEntered="23" nVehLeft="16" nVehSeen="24" meanSpeed="11.64" meanTimeLoss="0.98" meanOccupancy="7.06" maxOccupancy="17.63" meanMaxJamLengthInVehicles="0.00" meanMaxJamLengthInMeters="0.00" maxJamLengthInVehicles="0" maxJamLengthInMeters="0.00" jamLengthInVehiclesSum="0" jamLengthInMetersSum="0.00" meanHaltingDuration="0.00" maxHaltingDuration="0.00" haltingDurationSum="0.00" meanIntervalHaltingDuration="0.00" maxIntervalHaltingDuration="0.00" intervalHaltingDurationSum="0.00" startedHalts="0.00" meanVehicleNumber="3.81" maxVehicleNumber="10" />
   <interval begin="22100.00" end="22200.00" id="e2_L193#1_1_2" sampledSeconds="221.75" nVehEntered="9" nVehLeft="17" nVehSeen="17" meanSpeed="11.57" meanTimeLoss="0.95" meanOccupancy="4.17" maxOccupancy="15.67" meanMaxJamLengthInVehicles="0.00" meanMaxJamLengthInMeters="0.00" maxJamLengthInVehicles="0" maxJamLengthInMeters="0.00" jamLengthInVehiclesSum="0" jamLengthInMetersSum="0.00" meanHaltingDuration="0.00" maxHaltingDuration="0.00" haltingDurationSum="0.00" meanIntervalHaltingDuration="0.00" maxIntervalHaltingDuration="0.00" intervalHaltingDurationSum="0.00" startedHalts="0.00" meanVehicleNumber="2.33" maxVehicleNumber="8" />
   <interval begin="22200.00" end="22300.00" id="e2_L193#1_1_2" sampledSeconds="495.52" nVehEntered="28" nVehLeft="26" nVehSeen="28" meanSpeed="11.54" meanTimeLoss="1.28" meanOccupancy="9.57" maxOccupancy="17.63" meanMaxJamLengthInVehicles="0.00" meanMaxJamLengthInMeters="0.00" maxJamLengthInVehicles="0" maxJamLengthInMeters="0.00" jamLengthInVehiclesSum="0" jamLengthInMetersSum="0.00" meanHaltingDuration="0.00" maxHaltingDuration="0.00" haltingDurationSum="0.00" meanIntervalHaltingDuration="0.00" maxIntervalHaltingDuration="0.00" intervalHaltingDurationSum="0.00" startedHalts="0.00" meanVehicleNumber="5.25" maxVehicleNumber="10" />
   <interval begin="22300.00" end="22400.00" id="e2_L193#1_1_2" sampledSeconds="190.34" nVehEntered="17" nVehLeft="12" nVehSeen="19" meanSpeed="11.81" meanTimeLoss="0.55" meanOccupancy="3.72" maxOccupancy="12.11" meanMaxJamLengthInVehicles="0.00" meanMaxJamLengthInMeters="0.00" maxJamLengthInVehicles="0" maxJamLengthInMeters="0.00" jamLengthInVehiclesSum="0" jamLengthInMetersSum="0.00" meanHaltingDuration="0.00" maxHaltingDuration="0.00" haltingDurationSum="0.00" meanIntervalHaltingDuration="0.00" maxIntervalHaltingDuration="0.00" intervalHaltingDurationSum="0.00" startedHalts="0.00" meanVehicleNumber="2.02" maxVehicleNumber="7" />
   <interval begin="22400.00" end="22500.00" id="e2_L193#1_1_2" sampledSeconds="1097.18" nVehEntered="14" nVehLeft="8" nVehSeen="21" meanSpeed="2.73" meanTimeLoss="40.83" meanOccupancy="21.31" maxOccupancy="25.24" meanMaxJamLengthInVehicles="7.88" meanMaxJamLengthInMeters="53.53" maxJamLengthInVehicles="13" maxJamLengthInMeters="88.52" jamLengthInVehiclesSum="788" jamLengthInMetersSum="5352.88" meanHaltingDuration="61.62" maxHaltingDuration="73.00" haltingDurationSum="801.00" meanIntervalHaltingDuration="61.62" maxIntervalHaltingDuration="73.00" intervalHaltingDurationSum="801.00" startedHalts="13.00" meanVehicleNumber="11.05" maxVehicleNumber="13" />
   <interval begin="22500.00" end="22600.00" id="e2_L193#1_1_2" sampledSeconds="1512.90" nVehEntered="13" nVehLeft="7" nVehSeen="26" meanSpeed="0.48" meanTimeLoss="55.96" meanOccupancy="29.43" maxOccupancy="38.95" meanMaxJamLengthInVehicles="14.31" meanMaxJamLengthInMeters="97.69" maxJamLengthInVehicles="19" maxJamLengthInMeters="131.13" jamLengthInVehiclesSum="1431" jamLengthInMetersSum="9769.01" meanHaltingDuration="117.79" maxHaltingDuration="173.00" haltingDurationSum="2238.00" meanIntervalHaltingDuration="75.63" maxIntervalHaltingDuration="100.00" intervalHaltingDurationSum="1437.00" startedHalts="6.00" meanVehicleNumber="15.15" maxVehicleNumber="20" />
   <interval begin="22600.00" end="22700.00" id="e2_L193#1_1_2" sampledSeconds="2653.92" nVehEntered="20" nVehLeft="5" nVehSeen="39" meanSpeed="0.30" meanTimeLoss="66.41" meanOccupancy="51.85" maxOccupancy="66.37" meanMaxJamLengthInVehicles="25.39" meanMaxJamLengthInMeters="175.17" maxJamLengthInVehicles="34" maxJamLengthInMeters="235.82" jamLengthInVehiclesSum="2539" jamLengthInMetersSum="17517.47" meanHaltingDuration="140.94" maxHaltingDuration="273.00" haltingDurationSum="4792.00" meanIntervalHaltingDuration="75.12" maxIntervalHaltingDuration="100.00" intervalHaltingDurationSum="2554.00" startedHalts="15.00" meanVehicleNumber="26.61" maxVehicleNumber="34" />
   <interval begin="22700.00" end="22800.00" id="e2_L193#1_1_2" sampledSeconds="3400.00" nVehEntered="0" nVehLeft="0" nVehSeen="34" meanSpeed="0.00" meanTimeLoss="100.00" meanOccupancy="66.37" maxOccupancy="66.37" meanMaxJamLengthInVehicles="34.00" meanMaxJamLengthInMeters="235.32" maxJamLengthInVehicles="34" maxJamLengthInMeters="235.32" jamLengthInVehiclesSum="3400" jamLengthInMetersSum="23532.40" meanHaltingDuration="240.94" maxHaltingDuration="373.00" haltingDurationSum="8192.00" meanIntervalHaltingDuration="100.00" maxIntervalHaltingDuration="100.00" intervalHaltingDurationSum="3400.00" startedHalts="0.00" meanVehicleNumber="34.00" maxVehicleNumber="34" />
   <interval begin="22800.00" end="22900.00" id="e2_L193#1_1_2" sampledSeconds="3400.00" nVehEntered="0" nVehLeft="0" nVehSeen="34" meanSpeed="0.00" meanTimeLoss="100.00" meanOccupancy="66.37" maxOccupancy="66.37" meanMaxJamLengthInVehicles="34.00" meanMaxJamLengthInMeters="235.32" maxJamLengthInVehicles="34" maxJamLengthInMeters="235.32" jamLengthInVehiclesSum="3400" jamLengthInMetersSum="23532.39" meanHaltingDuration="340.94" maxHaltingDuration="473.00" haltingDurationSum="11592.00" meanIntervalHaltingDuration="100.00" maxIntervalHaltingDuration="100.00" intervalHaltingDurationSum="3400.00" startedHalts="0.00" meanVehicleNumber="34.00" maxVehicleNumber="34" />
   <interval begin="22900.00" end="23000.00" id="e2_L193#1_1_2" sampledSeconds="3400.00" nVehEntered="0" nVehLeft="0" nVehSeen="34" meanSpeed="0.00" meanTimeLoss="100.00" meanOccupancy="66.37" maxOccupancy="66.37" meanMaxJamLengthInVehicles="34.00" meanMaxJamLengthInMeters="235.32" maxJamLengthInVehicles="34" maxJamLengthInMeters="235.32" jamLengthInVehiclesSum="3400" jamLengthInMetersSum="23532.39" meanHaltingDuration="440.94" maxHaltingDuration="573.00" haltingDurationSum="14992.00" meanIntervalHaltingDuration="100.00" maxIntervalHaltingDuration="100.00" intervalHaltingDurationSum="3400.00" startedHalts="0.00" meanVehicleNumber="34.00" maxVehicleNumber="34" />
   <interval begin="23000.00" end="23100.00" id="e2_L193#1_1_2" sampledSeconds="3400.00" nVehEntered="0" nVehLeft="0" nVehSeen="34" meanSpeed="0.00" meanTimeLoss="100.00" meanOccupancy="66.37" maxOccupancy="66.37" meanMaxJamLengthInVehicles="34.00" meanMaxJamLengthInMeters="235.32" maxJamLengthInVehicles="34" maxJamLengthInMeters="235.32" jamLengthInVehiclesSum="3400" jamLengthInMetersSum="23532.39" meanHaltingDuration="540.94" maxHaltingDuration="673.00" haltingDurationSum="18392.00" meanIntervalHaltingDuration="100.00" maxIntervalHaltingDuration="100.00" intervalHaltingDurationSum="3400.00" startedHalts="0.00" meanVehicleNumber="34.00" maxVehicleNumber="34" />
   <interval begin="23100.00" end="23200.00" id="e2_L193#1_1_2" sampledSeconds="3400.00" nVehEntered="0" nVehLeft="0" nVehSeen="34" meanSpeed="0.00" meanTimeLoss="100.00" meanOccupancy="66.37" maxOccupancy="66.37" meanMaxJamLengthInVehicles="34.00" meanMaxJamLengthInMeters="235.32" maxJamLengthInVehicles="34" maxJamLengthInMeters="235.32" jamLengthInVehiclesSum="3400" jamLengthInMetersSum="23532.39" meanHaltingDuration="640.94" maxHaltingDuration="773.00" haltingDurationSum="21792.00" meanIntervalHaltingDuration="100.00" maxIntervalHaltingDuration="100.00" intervalHaltingDurationSum="3400.00" startedHalts="0.00" meanVehicleNumber="34.00" maxVehicleNumber="34" />
   <interval begin="23200.00" end="23300.00" id="e2_L193#1_1_2" sampledSeconds="3400.00" nVehEntered="0" nVehLeft="0" nVehSeen="34" meanSpeed="0.00" meanTimeLoss="100.00" meanOccupancy="66.37" maxOccupancy="66.37" meanMaxJamLengthInVehicles="34.00" meanMaxJamLengthInMeters="235.32" maxJamLengthInVehicles="34" maxJamLengthInMeters="235.32" jamLengthInVehiclesSum="3400" jamLengthInMetersSum="23532.39" meanHaltingDuration="740.94" maxHaltingDuration="873.00" haltingDurationSum="25192.00" meanIntervalHaltingDuration="100.00" maxIntervalHaltingDuration="100.00" intervalHaltingDurationSum="3400.00" startedHalts="0.00" meanVehicleNumber="34.00" maxVehicleNumber="34" />
   <interval begin="23300.00" end="23400.00" id="e2_L193#1_1_2" sampledSeconds="3400.00" nVehEntered="0" nVehLeft="0" nVehSeen="34" meanSpeed="0.00" meanTimeLoss="100.00" meanOccupancy="66.37" maxOccupancy="66.37" meanMaxJamLengthInVehicles="34.00" meanMaxJamLengthInMeters="235.32" maxJamLengthInVehicles="34" maxJamLengthInMeters="235.32" jamLengthInVehiclesSum="3400" jamLengthInMetersSum="23532.39" meanHaltingDuration="840.94" maxHaltingDuration="973.00" haltingDurationSum="28592.00" meanIntervalHaltingDuration="100.00" maxIntervalHaltingDuration="100.00" intervalHaltingDurationSum="3400.00" startedHalts="0.00" meanVehicleNumber="34.00" maxVehicleNumber="34" />
   <interval begin="23400.00" end="23500.00" id="e2_L193#1_1_2" sampledSeconds="3400.00" nVehEntered="0" nVehLeft="0" nVehSeen="34" meanSpeed="0.00" meanTimeLoss="100.00" meanOccupancy="66.37" maxOccupancy="66.37" meanMaxJamLengthInVehicles="34.00" meanMaxJamLengthInMeters="235.32" maxJamLengthInVehicles="34" maxJamLengthInMeters="235.32" jamLengthInVehiclesSum="3400" jamLengthInMetersSum="23532.39" meanHaltingDuration="940.94" maxHaltingDuration="1073.00" haltingDurationSum="31992.00" meanIntervalHaltingDuration="100.00" maxIntervalHaltingDuration="100.00" intervalHaltingDurationSum="3400.00" startedHalts="0.00" meanVehicleNumber="34.00" maxVehicleNumber="34" />
   <interval begin="23500.00" end="23600.00" id="e2_L193#1_1_2" sampledSeconds="3351.87" nVehEntered="3" nVehLeft="3" nVehSeen="37" meanSpeed="0.07" meanTimeLoss="90.06" meanOccupancy="65.23" maxOccupancy="66.54" meanMaxJamLengthInVehicles="33.40" meanMaxJamLengthInMeters="234.30" maxJamLengthInVehicles="34" maxJamLengthInMeters="240.47" jamLengthInVehiclesSum="3342" jamLengthInMetersSum="23435.05" meanHaltingDuration="925.51" maxHaltingDuration="1169.00" haltingDurationSum="34244.00" meanIntervalHaltingDuration="89.86" maxIntervalHaltingDuration="100.00" intervalHaltingDurationSum="3325.00" startedHalts="5.00" meanVehicleNumber="33.54" maxVehicleNumber="34" />
   <interval begin="23600.00" end="23700.00" id="e2_L193#1_1_2" sampledSeconds="3400.00" nVehEntered="0" nVehLeft="0" nVehSeen="34" meanSpeed="0.00" meanTimeLoss="100.00" meanOccupancy="66.54" maxOccupancy="66.54" meanMaxJamLengthInVehicles="34.00" meanMaxJamLengthInMeters="235.32" maxJamLengthInVehicles="34" maxJamLengthInMeters="235.34" jamLengthInVehiclesSum="3400" jamLengthInMetersSum="23532.46" meanHaltingDuration="1042.79" maxHaltingDuration="1269.00" haltingDurationSum="35455.00" meanIntervalHaltingDuration="100.00" maxIntervalHaltingDuration="100.00" intervalHaltingDurationSum="3400.00" startedHalts="0.00" meanVehicleNumber="34.00" maxVehicleNumber="34" />
   <interval begin="23700.00" end="23800.00" id="e2_L193#1_1_2" sampledSeconds="3400.00" nVehEntered="0" nVehLeft="0" nVehSeen="34" meanSpeed="0.00" meanTimeLoss="100.00" meanOccupancy="66.54" maxOccupancy="66.54" meanMaxJamLengthInVehicles="34.00" meanMaxJamLengthInMeters="235.32" maxJamLengthInVehicles="34" maxJamLengthInMeters="235.32" jamLengthInVehiclesSum="3400" jamLengthInMetersSum="23532.40" meanHaltingDuration="1142.79" maxHaltingDuration="1369.00" haltingDurationSum="38855.00" meanIntervalHaltingDuration="100.00" maxIntervalHaltingDuration="100.00" intervalHaltingDurationSum="3400.00" startedHalts="0.00" meanVehicleNumber="34.00" maxVehicleNumber="34" />
   <interval begin="23800.00" end="23900.00" id="e2_L193#1_1_2" sampledSeconds="3400.00" nVehEntered="0" nVehLeft="0" nVehSeen="34" meanSpeed="0.00" meanTimeLoss="100.00" meanOccupancy="66.54" maxOccupancy="66.54" meanMaxJamLengthInVehicles="34.00" meanMaxJamLengthInMeters="235.32" maxJamLengthInVehicles="34" maxJamLengthInMeters="235.32" jamLengthInVehiclesSum="3400" jamLengthInMetersSum="23532.40" meanHaltingDuration="1242.79" maxHaltingDuration="1469.00" haltingDurationSum="42255.00" meanIntervalHaltingDuration="100.00" maxIntervalHaltingDuration="100.00" intervalHaltingDurationSum="3400.00" startedHalts="0.00" meanVehicleNumber="34.00" maxVehicleNumber="34" />
   <interval begin="23900.00" end="24000.00" id="e2_L193#1_1_2" sampledSeconds="3400.00" nVehEntered="0" nVehLeft="0" nVehSeen="34" meanSpeed="0.00" meanTimeLoss="100.00" meanOccupancy="66.54" maxOccupancy="66.54" meanMaxJamLengthInVehicles="34.00" meanMaxJamLengthInMeters="235.32" maxJamLengthInVehicles="34" maxJamLengthInMeters="235.32" jamLengthInVehiclesSum="3400" jamLengthInMetersSum="23532.40" meanHaltingDuration="1342.79" maxHaltingDuration="1569.00" haltingDurationSum="45655.00" meanIntervalHaltingDuration="100.00" maxIntervalHaltingDuration="100.00" intervalHaltingDurationSum="3400.00" startedHalts="0.00" meanVehicleNumber="34.00" maxVehicleNumber="34" />
   <interval begin="24000.00" end="24100.00" id="e2_L193#1_1_2" sampledSeconds="3351.81" nVehEntered="1" nVehLeft="1" nVehSeen="35" meanSpeed="0.04" meanTimeLoss="95.45" meanOccupancy="65.53" maxOccupancy="66.54" meanMaxJamLengthInVehicles="33.45" meanMaxJamLengthInMeters="234.67" maxJamLengthInVehicles="34" maxJamLengthInMeters="239.06" jamLengthInVehiclesSum="3347" jamLengthInMetersSum="23476.67" meanHaltingDuration="1324.46" maxHaltingDuration="1667.00" haltingDurationSum="49005.00" meanIntervalHaltingDuration="90.54" maxIntervalHaltingDuration="100.00" intervalHaltingDurationSum="3350.00" startedHalts="3.00" meanVehicleNumber="33.53" maxVehicleNumber="34" />
   <interval begin="24100.00" end="24200.00" id="e2_L193#1_1_2" sampledSeconds="3400.00" nVehEntered="0" nVehLeft="0" nVehSeen="34" meanSpeed="0.00" meanTimeLoss="99.98" meanOccupancy="65.59" maxOccupancy="65.62" meanMaxJamLengthInVehicles="34.00" meanMaxJamLengthInMeters="236.01" maxJamLengthInVehicles="34" maxJamLengthInMeters="236.01" jamLengthInVehiclesSum="3400" jamLengthInMetersSum="23601.33" meanHaltingDuration="1462.94" maxHaltingDuration="1767.00" haltingDurationSum="49740.00" meanIntervalHaltingDuration="100.00" maxIntervalHaltingDuration="100.00" intervalHaltingDurationSum="3400.00" startedHalts="0.00" meanVehicleNumber="34.00" maxVehicleNumber="34" />
   <interval begin="24200.00" end="24300.00" id="e2_L193#1_1_2" sampledSeconds="3398.92" nVehEntered="1" nVehLeft="1" nVehSeen="35" meanSpeed="0.02" meanTimeLoss="96.93" meanOccupancy="65.61" maxOccupancy="65.89" meanMaxJamLengthInVehicles="33.96" meanMaxJamLengthInMeters="235.78" maxJamLengthInVehicles="34" maxJamLengthInMeters="240.59" jamLengthInVehiclesSum="3396" jamLengthInMetersSum="23577.68" meanHaltingDuration="1518.17" maxHaltingDuration="1867.00" haltingDurationSum="53136.00" meanIntervalHaltingDuration="97.03" maxIntervalHaltingDuration="100.00" intervalHaltingDurationSum="3396.00" startedHalts="2.00" meanVehicleNumber="33.99" maxVehicleNumber="34" />
   <interval begin="24300.00" end="24400.00" id="e2_L193#1_1_2" sampledSeconds="3400.00" nVehEntered="0" nVehLeft="0" nVehSeen="34" meanSpeed="0.01" meanTimeLoss="99.92" meanOccupancy="66.29" maxOccupancy="66.37" meanMaxJamLengthInVehicles="34.00" meanMaxJamLengthInMeters="235.59" maxJamLengthInVehicles="34" maxJamLengthInMeters="236.40" jamLengthInVehiclesSum="3400" jamLengthInMetersSum="23558.71" meanHaltingDuration="1658.12" maxHaltingDuration="1967.00" haltingDurationSum="56376.00" meanIntervalHaltingDuration="100.00" maxIntervalHaltingDuration="100.00" intervalHaltingDurationSum="3400.00" startedHalts="0.00" meanVehicleNumber="34.00" maxVehicleNumber="34" />
   <interval begin="24400.00" end="24500.00" id="e2_L193#1_1_2" sampledSeconds="3400.00" nVehEntered="0" nVehLeft="0" nVehSeen="34" meanSpeed="0.00" meanTimeLoss="100.00" meanOccupancy="66.37" maxOccupancy="66.37" meanMaxJamLengthInVehicles="34.00" meanMaxJamLengthInMeters="235.32" maxJamLengthInVehicles="34" maxJamLengthInMeters="235.32" jamLengthInVehiclesSum="3400" jamLengthInMetersSum="23532.39" meanHaltingDuration="1758.12" maxHaltingDuration="2067.00" haltingDurationSum="59776.00" meanIntervalHaltingDuration="100.00" maxIntervalHaltingDuration="100.00" intervalHaltingDurationSum="3400.00" startedHalts="0.00" meanVehicleNumber="34.00" maxVehicleNumber="34" />
   <interval begin="24500.00" end="24600.00" id="e2_L193#1_1_2" sampledSeconds="3400.00" nVehEntered="0" nVehLeft="0" nVehSeen="34" meanSpeed="0.00" meanTimeLoss="100.00" meanOccupancy="66.37" maxOccupancy="66.37" meanMaxJamLengthInVehicles="34.00" meanMaxJamLengthInMeters="235.32" maxJamLengthInVehicles="34" maxJamLengthInMeters="235.32" jamLengthInVehiclesSum="3400" jamLengthInMetersSum="23532.39" meanHaltingDuration="1858.12" maxHaltingDuration="2167.00" haltingDurationSum="63176.00" meanIntervalHaltingDuration="100.00" maxIntervalHaltingDuration="100.00" intervalHaltingDurationSum="3400.00" startedHalts="0.00" meanVehicleNumber="34.00" maxVehicleNumber="34" />
   <interval begin="24600.00" end="24700.00" id="e2_L193#1_1_2" sampledSeconds="3400.00" nVehEntered="0" nVehLeft="0" nVehSeen="34" meanSpeed="0.00" meanTimeLoss="100.00" meanOccupancy="66.37" maxOccupancy="66.37" meanMaxJamLengthInVehicles="34.00" meanMaxJamLengthInMeters="235.32" maxJamLengthInVehicles="34" maxJamLengthInMeters="235.32" jamLengthInVehiclesSum="3400" jamLengthInMetersSum="23532.39" meanHaltingDuration="1958.12" maxHaltingDuration="2267.00" haltingDurationSum="66576.00" meanIntervalHaltingDuration="100.00" maxIntervalHaltingDuration="100.00" intervalHaltingDurationSum="3400.00" startedHalts="0.00" meanVehicleNumber="34.00" maxVehicleNumber="34" />
   <interval begin="24700.00" end="24800.00" id="e2_L193#1_1_2" sampledSeconds="3400.00" nVehEntered="0" nVehLeft="0" nVehSeen="34" meanSpeed="0.00" meanTimeLoss="100.00" meanOccupancy="66.37" maxOccupancy="66.37" meanMaxJamLengthInVehicles="34.00" meanMaxJamLengthInMeters="235.32" maxJamLengthInVehicles="34" maxJamLengthInMeters="235.32" jamLengthInVehiclesSum="3400" jamLengthInMetersSum="23532.39" meanHaltingDuration="2058.12" maxHaltingDuration="2367.00" haltingDurationSum="69976.00" meanIntervalHaltingDuration="100.00" maxIntervalHaltingDuration="100.00" intervalHaltingDurationSum="3400.00" startedHalts="0.00" meanVehicleNumber="34.00" maxVehicleNumber="34" />
   <interval begin="24800.00" end="24900.00" id="e2_L193#1_1_2" sampledSeconds="3400.00" nVehEntered="0" nVehLeft="0" nVehSeen="34" meanSpeed="0.01" meanTimeLoss="99.93" meanOccupancy="66.14" maxOccupancy="66.37" meanMaxJamLengthInVehicles="34.00" meanMaxJamLengthInMeters="235.78" maxJamLengthInVehicles="34" maxJamLengthInMeters="236.22" jamLengthInVehiclesSum="3400" jamLengthInMetersSum="23577.53" meanHaltingDuration="2158.12" maxHaltingDuration="2467.00" haltingDurationSum="73376.00" meanIntervalHaltingDuration="100.00" maxIntervalHaltingDuration="100.00" intervalHaltingDurationSum="3400.00" startedHalts="0.00" meanVehicleNumber="34.00" maxVehicleNumber="34" />
   <interval begin="24900.00" end="25000.00" id="e2_L193#1_1_2" sampledSeconds="3400.00" nVehEntered="0" nVehLeft="0" nVehSeen="34" meanSpeed="0.00" meanTimeLoss="100.00" meanOccupancy="65.99" maxOccupancy="65.99" meanMaxJamLengthInVehicles="34.00" meanMaxJamLengthInMeters="235.33" maxJamLengthInVehicles="34" maxJamLengthInMeters="235.39" jamLengthInVehiclesSum="3400" jamLengthInMetersSum="23532.77" meanHaltingDuration="2258.12" maxHaltingDuration="2567.00" haltingDurationSum="76776.00" meanIntervalHaltingDuration="100.00" maxIntervalHaltingDuration="100.00" intervalHaltingDurationSum="3400.00" startedHalts="0.00" meanVehicleNumber="34.00" maxVehicleNumber="34" />
   <interval begin="25000.00" end="25100.00" id="e2_L193#1_1_2" sampledSeconds="3400.00" nVehEntered="0" nVehLeft="0" nVehSeen="34" meanSpeed="0.00" meanTimeLoss="100.00" meanOccupancy="65.99" maxOccupancy="65.99" meanMaxJamLengthInVehicles="34.00" meanMaxJamLengthInMeters="235.32" maxJamLengthInVehicles="34" maxJamLengthInMeters="235.32" jamLengthInVehiclesSum="3400" jamLengthInMetersSum="23532.42" meanHaltingDuration="2358.12" maxHaltingDuration="2667.00" haltingDurationSum="80176.00" meanIntervalHaltingDuration="100.00" maxIntervalHaltingDuration="100.00" intervalHaltingDurationSum="3400.00" startedHalts="0.00" meanVehicleNumber="34.00" maxVehicleNumber="34" />
   <interval begin="25100.00" end="25200.00" id="e2_L193#1_1_2" sampledSeconds="3400.00" nVehEntered="0" nVehLeft="0" nVehSeen="34" meanSpeed="0.00" meanTimeLoss="100.00" meanOccupancy="65.99" maxOccupancy="65.99" meanMaxJamLengthInVehicles="34.00" meanMaxJamLengthInMeters="235.32" maxJamLengthInVehicles="34" maxJamLengthInMeters="235.32" jamLengthInVehiclesSum="3400" jamLengthInMetersSum="23532.42" meanHaltingDuration="2458.12" maxHaltingDuration="2767.00" haltingDurationSum="83576.00" meanIntervalHaltingDuration="100.00" maxIntervalHaltingDuration="100.00" intervalHaltingDurationSum="3400.00" startedHalts="0.00" meanVehicleNumber="34.00" maxVehicleNumber="34" />
   <interval begin="25200.00" end="25300.00" id="e2_L193#1_1_2" sampledSeconds="3400.00" nVehEntered="0" nVehLeft="0" nVehSeen="34" meanSpeed="0.00" meanTimeLoss="100.00" meanOccupancy="65.99" maxOccupancy="65.99" meanMaxJamLengthInVehicles="34.00" meanMaxJamLengthInMeters="235.32" maxJamLengthInVehicles="34" maxJamLengthInMeters="235.32" jamLengthInVehiclesSum="3400" jamLengthInMetersSum="23532.42" meanHaltingDuration="2558.12" maxHaltingDuration="2867.00" haltingDurationSum="86976.00" meanIntervalHaltingDuration="100.00" maxIntervalHaltingDuration="100.00" intervalHaltingDurationSum="3400.00" startedHalts="0.00" meanVehicleNumber="34.00" maxVehicleNumber="34" />
   <interval begin="25300.00" end="25400.00" id="e2_L193#1_1_2" sampledSeconds="3400.00" nVehEntered="0" nVehLeft="0" nVehSeen="34" meanSpeed="0.00" meanTimeLoss="100.00" meanOccupancy="65.99" maxOccupancy="65.99" meanMaxJamLengthInVehicles="34.00" meanMaxJamLengthInMeters="235.32" maxJamLengthInVehicles="34" maxJamLengthInMeters="235.32" jamLengthInVehiclesSum="3400" jamLengthInMetersSum="23532.44" meanHaltingDuration="2658.12" maxHaltingDuration="2967.00" haltingDurationSum="90376.00" meanIntervalHaltingDuration="100.00" maxIntervalHaltingDuration="100.00" intervalHaltingDurationSum="3400.00" startedHalts="0.00" meanVehicleNumber="34.00" maxVehicleNumber="34" />
   <interval begin="25400.00" end="25500.00" id="e2_L193#1_1_2" sampledSeconds="3400.00" nVehEntered="0" nVehLeft="0" nVehSeen="34" meanSpeed="0.00" meanTimeLoss="100.00" meanOccupancy="65.99" maxOccupancy="65.99" meanMaxJamLengthInVehicles="34.00" meanMaxJamLengthInMeters="235.33" maxJamLengthInVehicles="34" maxJamLengthInMeters="235.60" jamLengthInVehiclesSum="3400" jamLengthInMetersSum="23533.22" meanHaltingDuration="2758.12" maxHaltingDuration="3067.00" haltingDurationSum="93776.00" meanIntervalHaltingDuration="100.00" maxIntervalHaltingDuration="100.00" intervalHaltingDurationSum="3400.00" startedHalts="0.00" meanVehicleNumber="34.00" maxVehicleNumber="34" />
   <interval begin="25500.00" end="25600.00" id="e2_L193#1_1_2" sampledSeconds="3191.83" nVehEntered="9" nVehLeft="11" nVehSeen="43" meanSpeed="0.29" meanTimeLoss="72.52" meanOccupancy="61.19" maxOccupancy="65.85" meanMaxJamLengthInVehicles="27.73" meanMaxJamLengthInMeters="197.64" maxJamLengthInVehicles="34" maxJamLengthInMeters="240.52" jamLengthInVehiclesSum="2945" jamLengthInMetersSum="20933.33" meanHaltingDuration="1098.99" maxHaltingDuration="3123.00" haltingDurationSum="96711.00" meanIntervalHaltingDuration="33.35" maxIntervalHaltingDuration="100.00" intervalHaltingDurationSum="2935.00" startedHalts="61.00" meanVehicleNumber="31.97" maxVehicleNumber="34" />
   <interval begin="25600.00" end="25700.00" id="e2_L193#1_1_2" sampledSeconds="3194.25" nVehEntered="4" nVehLeft="9" nVehSeen="36" meanSpeed="0.31" meanTimeLoss="86.56" meanOccupancy="61.35" maxOccupancy="65.14" meanMaxJamLengthInVehicles="26.41" meanMaxJamLengthInMeters="189.01" maxJamLengthInVehicles="34" maxJamLengthInMeters="240.98" jamLengthInVehiclesSum="2968" jamLengthInMetersSum="21176.23" meanHaltingDuration="334.78" maxHaltingDuration="3037.00" haltingDurationSum="30130.00" meanIntervalHaltingDuration="33.05" maxIntervalHaltingDuration="100.00" intervalHaltingDurationSum="2975.00" startedHalts="61.00" meanVehicleNumber="32.00" maxVehicleNumber="34" />
   <interval begin="25700.00" end="25800.00" id="e2_L193#1_1_2" sampledSeconds="2709.83" nVehEntered="17" nVehLeft="11" nVehSeen="44" meanSpeed="1.10" meanTimeLoss="56.15" meanOccupancy="52.39" maxOccupancy="64.42" meanMaxJamLengthInVehicles="14.20" meanMaxJamLengthInMeters="102.01" maxJamLengthInVehicles="33" maxJamLengthInMeters="236.40" jamLengthInVehiclesSum="1635" jamLengthInMetersSum="11567.49" meanHaltingDuration="130.90" maxHaltingDuration="3039.00" haltingDurationSum="24216.00" meanIntervalHaltingDuration="9.73" maxIntervalHaltingDuration="70.00" intervalHaltingDurationSum="1800.00" startedHalts="167.00" meanVehicleNumber="27.21" maxVehicleNumber="33" />