<?xml version="1.0" encoding="UTF-8"?>

<!-- generated on Sun Feb 17 15:57:00 2019 by 
<configuration xmlns:xsi="http://www.w3.org/2001/XMLSchema-instance" xsi:noNamespaceSchemaLocation="http://sumo.dlr.de/xsd/Configuration.xsd">

    <input>
        <net-file value="/home/sda/Documents/sumo-sathorn-ray/models/sathorn-morning/sathorn_w_fixed_20160404.net.xml"/>
        <route-files value="/home/sda/Documents/sumo-sathorn-ray/models/sathorn-morning/Great-route/sathorn_w_20160422edit2.rou.xml"/>
        <additional-files value="/home/sda/Documents/sumo-sathorn-ray/models/sathorn-morning/sathon_wide_tls_20160418_edited.add.xml,/home/sda/Documents/sumo-sathorn-ray/detectors/sathorn_w_detectors.add.xml"/>
    </input>

    <time>
        <begin value="21600"/>
        <end value="32400"/>
        <step-length value="1"/>
    </time>

    <processing>
        <no-internal-links value="true"/>
        <ignore-junction-blocker value="-1"/>
        <time-to-teleport value="-1"/>
        <eager-insert value="true"/>
        <time-to-impatience value="300"/>
    </processing>

    <report>
        <no-warnings value="true"/>
    </report>

    <random_number>
        <random value="false"/>
        <seed value="20"/>
    </random_number>

    <gui_only>
        <gui-settings-file value="/home/sda/Documents/sumo-sathorn-ray/gui-settings/gui-settings-file-surasak.xml"/>
        <quit-on-end value="true"/>
        <start value="true"/>
        <tracker-interval value="1"/>
    </gui_only>

</configuration>
-->

<detector xmlns:xsi="http://www.w3.org/2001/XMLSchema-instance" xsi:noNamespaceSchemaLocation="http://sumo.dlr.de/xsd/det_e2_file.xsd">
   <interval begin="21600.00" end="21700.00" id="e2_L197#2_2_1" sampledSeconds="0.00" nVehEntered="0" nVehLeft="0" nVehSeen="0" meanSpeed="-1.00" meanTimeLoss="-1.00" meanOccupancy="0.00" maxOccupancy="0.00" meanMaxJamLengthInVehicles="0.00" meanMaxJamLengthInMeters="0.00" maxJamLengthInVehicles="0" maxJamLengthInMeters="0.00" jamLengthInVehiclesSum="0" jamLengthInMetersSum="0.00" meanHaltingDuration="0.00" maxHaltingDuration="0.00" haltingDurationSum="0.00" meanIntervalHaltingDuration="0.00" maxIntervalHaltingDuration="0.00" intervalHaltingDurationSum="0.00" startedHalts="0.00" meanVehicleNumber="0.00" maxVehicleNumber="0" />
   <interval begin="21700.00" end="21800.00" id="e2_L197#2_2_1" sampledSeconds="0.00" nVehEntered="0" nVehLeft="0" nVehSeen="0" meanSpeed="-1.00" meanTimeLoss="-1.00" meanOccupancy="0.00" maxOccupancy="0.00" meanMaxJamLengthInVehicles="0.00" meanMaxJamLengthInMeters="0.00" maxJamLengthInVehicles="0" maxJamLengthInMeters="0.00" jamLengthInVehiclesSum="0" jamLengthInMetersSum="0.00" meanHaltingDuration="0.00" maxHaltingDuration="0.00" haltingDurationSum="0.00" meanIntervalHaltingDuration="0.00" maxIntervalHaltingDuration="0.00" intervalHaltingDurationSum="0.00" startedHalts="0.00" meanVehicleNumber="0.00" maxVehicleNumber="0" />
   <interval begin="21800.00" end="21900.00" id="e2_L197#2_2_1" sampledSeconds="5.37" nVehEntered="2" nVehLeft="1" nVehSeen="2" meanSpeed="11.81" meanTimeLoss="0.15" meanOccupancy="0.67" maxOccupancy="11.92" meanMaxJamLengthInVehicles="0.00" meanMaxJamLengthInMeters="0.00" maxJamLengthInVehicles="0" maxJamLengthInMeters="0.00" jamLengthInVehiclesSum="0" jamLengthInMetersSum="0.00" meanHaltingDuration="0.00" maxHaltingDuration="0.00" haltingDurationSum="0.00" meanIntervalHaltingDuration="0.00" maxIntervalHaltingDuration="0.00" intervalHaltingDurationSum="0.00" startedHalts="0.00" meanVehicleNumber="0.07" maxVehicleNumber="2" />
   <interval begin="21900.00" end="22000.00" id="e2_L197#2_2_1" sampledSeconds="197.77" nVehEntered="24" nVehLeft="21" nVehSeen="25" meanSpeed="2.49" meanTimeLoss="6.33" meanOccupancy="21.78" maxOccupancy="45.02" meanMaxJamLengthInVehicles="1.24" meanMaxJamLengthInMeters="7.16" maxJamLengthInVehicles="4" maxJamLengthInMeters="25.74" jamLengthInVehiclesSum="124" jamLengthInMetersSum="716.50" meanHaltingDuration="21.67" maxHaltingDuration="35.00" haltingDurationSum="130.00" meanIntervalHaltingDuration="21.67" maxIntervalHaltingDuration="35.00" intervalHaltingDurationSum="130.00" startedHalts="8.00" meanVehicleNumber="2.09" maxVehicleNumber="4" />
   <interval begin="22000.00" end="22100.00" id="e2_L197#2_2_1" sampledSeconds="569.62" nVehEntered="3" nVehLeft="1" nVehSeen="7" meanSpeed="0.04" meanTimeLoss="81.13" meanOccupancy="65.26" maxOccupancy="68.86" meanMaxJamLengthInVehicles="5.63" meanMaxJamLengthInMeters="36.99" maxJamLengthInVehicles="6" maxJamLengthInMeters="39.66" jamLengthInVehiclesSum="563" jamLengthInMetersSum="3699.26" meanHaltingDuration="108.50" maxHaltingDuration="135.00" haltingDurationSum="651.00" meanIntervalHaltingDuration="94.17" maxIntervalHaltingDuration="100.00" intervalHaltingDurationSum="565.00" startedHalts="2.00" meanVehicleNumber="5.71" maxVehicleNumber="6" />
   <interval begin="22100.00" end="22200.00" id="e2_L197#2_2_1" sampledSeconds="600.00" nVehEntered="0" nVehLeft="0" nVehSeen="6" meanSpeed="0.00" meanTimeLoss="100.00" meanOccupancy="68.86" maxOccupancy="68.86" meanMaxJamLengthInVehicles="6.00" meanMaxJamLengthInMeters="39.58" maxJamLengthInVehicles="6" maxJamLengthInMeters="39.58" jamLengthInVehiclesSum="600" jamLengthInMetersSum="3957.53" meanHaltingDuration="208.50" maxHaltingDuration="235.00" haltingDurationSum="1251.00" meanIntervalHaltingDuration="100.00" maxIntervalHaltingDuration="100.00" intervalHaltingDurationSum="600.00" startedHalts="0.00" meanVehicleNumber="6.00" maxVehicleNumber="6" />
   <interval begin="22200.00" end="22300.00" id="e2_L197#2_2_1" sampledSeconds="592.61" nVehEntered="1" nVehLeft="1" nVehSeen="7" meanSpeed="0.07" meanTimeLoss="84.16" meanOccupancy="67.65" maxOccupancy="68.87" meanMaxJamLengthInVehicles="5.74" meanMaxJamLengthInMeters="37.92" maxJamLengthInVehicles="6" maxJamLengthInMeters="41.38" jamLengthInVehiclesSum="578" jamLengthInMetersSum="3806.58" meanHaltingDuration="141.23" maxHaltingDuration="289.00" haltingDurationSum="1836.00" meanIntervalHaltingDuration="45.00" maxIntervalHaltingDuration="62.00" intervalHaltingDurationSum="585.00" startedHalts="7.00" meanVehicleNumber="5.93" maxVehicleNumber="6" />
   <interval begin="22300.00" end="22400.00" id="e2_L197#2_2_1" sampledSeconds="592.23" nVehEntered="1" nVehLeft="1" nVehSeen="7" meanSpeed="0.07" meanTimeLoss="84.11" meanOccupancy="67.55" maxOccupancy="68.87" meanMaxJamLengthInVehicles="5.84" meanMaxJamLengthInMeters="38.75" maxJamLengthInVehicles="6" maxJamLengthInMeters="41.49" jamLengthInVehiclesSum="585" jamLengthInMetersSum="3880.02" meanHaltingDuration="82.60" maxHaltingDuration="139.00" haltingDurationSum="826.00" meanIntervalHaltingDuration="58.90" maxIntervalHaltingDuration="100.00" intervalHaltingDurationSum="589.00" startedHalts="4.00" meanVehicleNumber="5.93" maxVehicleNumber="6" />
   <interval begin="22400.00" end="22500.00" id="e2_L197#2_2_1" sampledSeconds="600.00" nVehEntered="0" nVehLeft="0" nVehSeen="6" meanSpeed="0.00" meanTimeLoss="100.00" meanOccupancy="68.87" maxOccupancy="68.87" meanMaxJamLengthInVehicles="6.00" meanMaxJamLengthInMeters="39.58" maxJamLengthInVehicles="6" maxJamLengthInMeters="39.58" jamLengthInVehiclesSum="600" jamLengthInMetersSum="3957.52" meanHaltingDuration="192.67" maxHaltingDuration="239.00" haltingDurationSum="1156.00" meanIntervalHaltingDuration="100.00" maxIntervalHaltingDuration="100.00" intervalHaltingDurationSum="600.00" startedHalts="0.00" meanVehicleNumber="6.00" maxVehicleNumber="6" />
   <interval begin="22500.00" end="22600.00" id="e2_L197#2_2_1" sampledSeconds="600.00" nVehEntered="0" nVehLeft="0" nVehSeen="6" meanSpeed="0.00" meanTimeLoss="100.00" meanOccupancy="68.87" maxOccupancy="68.87" meanMaxJamLengthInVehicles="6.00" meanMaxJamLengthInMeters="39.58" maxJamLengthInVehicles="6" maxJamLengthInMeters="39.58" jamLengthInVehiclesSum="600" jamLengthInMetersSum="3957.52" meanHaltingDuration="292.67" maxHaltingDuration="339.00" haltingDurationSum="1756.00" meanIntervalHaltingDuration="100.00" maxIntervalHaltingDuration="100.00" intervalHaltingDurationSum="600.00" startedHalts="0.00" meanVehicleNumber="6.00" maxVehicleNumber="6" />
   <interval begin="22600.00" end="22700.00" id="e2_L197#2_2_1" sampledSeconds="600.00" nVehEntered="0" nVehLeft="0" nVehSeen="6" meanSpeed="0.00" meanTimeLoss="100.00" meanOccupancy="68.87" maxOccupancy="68.87" meanMaxJamLengthInVehicles="6.00" meanMaxJamLengthInMeters="39.58" maxJamLengthInVehicles="6" maxJamLengthInMeters="39.58" jamLengthInVehiclesSum="600" jamLengthInMetersSum="3957.52" meanHaltingDuration="392.67" maxHaltingDuration="439.00" haltingDurationSum="2356.00" meanIntervalHaltingDuration="100.00" maxIntervalHaltingDuration="100.00" intervalHaltingDurationSum="600.00" startedHalts="0.00" meanVehicleNumber="6.00" maxVehicleNumber="6" />
   <interval begin="22700.00" end="22800.00" id="e2_L197#2_2_1" sampledSeconds="600.00" nVehEntered="0" nVehLeft="0" nVehSeen="6" meanSpeed="0.00" meanTimeLoss="100.00" meanOccupancy="68.87" maxOccupancy="68.87" meanMaxJamLengthInVehicles="6.00" meanMaxJamLengthInMeters="39.58" maxJamLengthInVehicles="6" maxJamLengthInMeters="39.58" jamLengthInVehiclesSum="600" jamLengthInMetersSum="3957.52" meanHaltingDuration="492.67" maxHaltingDuration="539.00" haltingDurationSum="2956.00" meanIntervalHaltingDuration="100.00" maxIntervalHaltingDuration="100.00" intervalHaltingDurationSum="600.00" startedHalts="0.00" meanVehicleNumber="6.00" maxVehicleNumber="6" />
   <interval begin="22800.00" end="22900.00" id="e2_L197#2_2_1" sampledSeconds="600.00" nVehEntered="0" nVehLeft="0" nVehSeen="6" meanSpeed="0.00" meanTimeLoss="100.00" meanOccupancy="68.87" maxOccupancy="68.87" meanMaxJamLengthInVehicles="