<?xml version="1.0" encoding="UTF-8"?>

<!-- generated on Sun Feb 17 15:57:00 2019 by 
<configuration xmlns:xsi="http://www.w3.org/2001/XMLSchema-instance" xsi:noNamespaceSchemaLocation="http://sumo.dlr.de/xsd/Configuration.xsd">

    <input>
        <net-file value="/home/sda/Documents/sumo-sathorn-ray/models/sathorn-morning/sathorn_w_fixed_20160404.net.xml"/>
        <route-files value="/home/sda/Documents/sumo-sathorn-ray/models/sathorn-morning/Great-route/sathorn_w_20160422edit2.rou.xml"/>
        <additional-files value="/home/sda/Documents/sumo-sathorn-ray/models/sathorn-morning/sathon_wide_tls_20160418_edited.add.xml,/home/sda/Documents/sumo-sathorn-ray/detectors/sathorn_w_detectors.add.xml"/>
    </input>

    <time>
        <begin value="21600"/>
        <end value="32400"/>
        <step-length value="1"/>
    </time>

    <processing>
        <no-internal-links value="true"/>
        <ignore-junction-blocker value="-1"/>
        <time-to-teleport value="-1"/>
        <eager-insert value="true"/>
        <time-to-impatience value="300"/>
    </processing>

    <report>
        <no-warnings value="true"/>
    </report>

    <random_number>
        <random value="false"/>
        <seed value="20"/>
    </random_number>

    <gui_only>
        <gui-settings-file value="/home/sda/Documents/sumo-sathorn-ray/gui-settings/gui-settings-file-surasak.xml"/>
        <quit-on-end value="true"/>
        <start value="true"/>
        <tracker-interval value="1"/>
    </gui_only>

</configuration>
-->

<detector xmlns:xsi="http://www.w3.org/2001/XMLSchema-instance" xsi:noNamespaceSchemaLocation="http://sumo.dlr.de/xsd/det_e2_file.xsd">
   <interval begin="21600.00" end="21700.00" id="e2_L40279_2_3" sampledSeconds="0.00" nVehEntered="0" nVehLeft="0" nVehSeen="0" meanSpeed="-1.00" meanTimeLoss="-1.00" meanOccupancy="0.00" maxOccupancy="0.00" meanMaxJamLengthInVehicles="0.00" meanMaxJamLengthInMeters="0.00" maxJamLengthInVehicles="0" maxJamLengthInMeters="0.00" jamLengthInVehiclesSum="0" jamLengthInMetersSum="0.00" meanHaltingDuration="0.00" maxHaltingDuration="0.00" haltingDurationSum="0.00" meanIntervalHaltingDuration="0.00" maxIntervalHaltingDuration="0.00" intervalHaltingDurationSum="0.00" startedHalts="0.00" meanVehicleNumber="0.00" maxVehicleNumber="0" />
   <interval begin="21700.00" end="21800.00" id="e2_L40279_2_3" sampledSeconds="0.00" nVehEntered="0" nVehLeft="0" nVehSeen="0" meanSpeed="-1.00" meanTimeLoss="-1.00" meanOccupancy="0.00" maxOccupancy="0.00" meanMaxJamLengthInVehicles="0.00" meanMaxJamLengthInMeters="0.00" maxJamLengthInVehicles="0" maxJamLengthInMeters="0.00" jamLengthInVehiclesSum="0" jamLengthInMetersSum="0.00" meanHaltingDuration="0.00" maxHaltingDuration="0.00" haltingDurationSum="0.00" meanIntervalHaltingDuration="0.00" maxIntervalHaltingDuration="0.00" intervalHaltingDurationSum="0.00" startedHalts="0.00" meanVehicleNumber="0.00" maxVehicleNumber="0" />
   <interval begin="21800.00" end="21900.00" id="e2_L40279_2_3" sampledSeconds="0.00" nVehEntered="0" nVehLeft="0" nVehSeen="0" meanSpeed="-1.00" meanTimeLoss="-1.00" meanOccupancy="0.00" maxOccupancy="0.00" meanMaxJamLengthInVehicles="0.00" meanMaxJamLengthInMeters="0.00" maxJamLengthInVehicles="0" maxJamLengthInMeters="0.00" jamLengthInVehiclesSum="0" jamLengthInMetersSum="0.00" meanHaltingDuration="0.00" maxHaltingDuration="0.00" haltingDurationSum="0.00" meanIntervalHaltingDuration="0.00" maxIntervalHaltingDuration="0.00" intervalHaltingDurationSum="0.00" startedHalts="0.00" meanVehicleNumber="0.00" maxVehicleNumber="0" />
   <interval begin="21900.00" end="22000.00" id="e2_L40279_2_3" sampledSeconds="31.36" nVehEntered="4" nVehLeft="4" nVehSeen="4" meanSpeed="4.57" meanTimeLoss="4.97" meanOccupancy="0.71" maxOccupancy="5.08" meanMaxJamLengthInVehicles="0.03" meanMaxJamLengthInMeters="0.13" maxJamLengthInVehicles="1" maxJamLengthInMeters="4.62" jamLengthInVehiclesSum="3" jamLengthInMetersSum="12.67" meanHaltingDuration="1.75" maxHaltingDuration="3.00" haltingDurationSum="7.00" meanIntervalHaltingDuration="1.75" maxIntervalHaltingDuration="3.00" intervalHaltingDurationSum="7.00" startedHalts="4.00" meanVehicleNumber="0.32" maxVehicleNumber="2" />
   <interval begin="22000.00" end="22100.00" id="e2_L40279_2_3" sampledSeconds="76.42" nVehEntered="8" nVehLeft="8" nVehSeen="8" meanSpeed="5.58" meanTimeLoss="5.29" meanOccupancy="1.79" maxOccupancy="7.62" meanMaxJamLengthInVehicles="0.03" meanMaxJamLengthInMeters="0.13" maxJamLengthInVehicles="1" maxJamLengthInMeters="4.62" jamLengthInVehiclesSum="3" jamLengthInMetersSum="12.58" meanHaltingDuration="1.75" maxHaltingDuration="2.00" haltingDurationSum="7.00" meanIntervalHaltingDuration="1.75" maxIntervalHaltingDuration="2.00" intervalHaltingDurationSum="7.00" startedHalts="4.00" meanVehicleNumber="0.79" maxVehicleNumber="3" />
   <interval begin="22100.00" end="22200.00" id="e2_L40279_2_3" sampledSeconds="132.87" nVehEntered="14" nVehLeft="13" nVehSeen="14" meanSpeed="4.84" meanTimeLoss="5.80" meanOccupancy="3.13" maxOccupancy="7.62" meanMaxJamLengthInVehicles="0.09" meanMaxJamLengthInMeters="0.45" maxJamLengthInVehicles="2" maxJamLengthInMeters="13.10" jamLengthInVehiclesSum="9" jamLengthInMetersSum="45.44" meanHaltingDuration="1.70" maxHaltingDuration="3.00" haltingDurationSum="17.00" meanIntervalHaltingDuration="1.70" maxIntervalHaltingDuration="3.00" intervalHaltingDurationSum="17.00" startedHalts="11.00" meanVehicleNumber="1.37" maxVehicleNumber="3" />
   <interval begin="22200.00" end="22300.00" id="e2_L40279_2_3" sampledSeconds="52.51" nVehEntered="9" nVehLeft="10" nVehSeen="10" meanSpeed="6.12" meanTimeLoss="2.68" meanOccupancy="1.16" maxOccupancy="5.08" meanMaxJamLengthInVehicles="0.04" meanMaxJamLengthInMeters="0.15" maxJamLengthInVehicles="1" maxJamLengthInMeters="4.62" jamLengthInVehiclesSum="4" jamLengthInMetersSum="14.75" meanHaltingDuration="3.00" maxHaltingDuration="3.00" haltingDurationSum="3.00" meanIntervalHaltingDuration="3.00" maxIntervalHaltingDuration="3.00" intervalHaltingDurationSum="3.00" startedHalts="2.00" meanVehicleNumber="0.56" maxVehicleNumber="2" />
   <interval begin="22300.00" end="22400.00" id="e2_L40279_2_3" sampledSeconds="76.77" nVehEntered="9" nVehLeft="8" nVehSeen="9" meanSpeed="4.61" meanTimeLoss="5.38" meanOccupancy="1.82" maxOccupancy="7.62" meanMaxJamLengthInVehicles="0.05" meanMaxJamLengthInMeters="0.21" maxJamLengthInVehicles="1" maxJamLengthInMeters="4.62" jamLengthInVehiclesSum="5" jamLengthInMetersSum="21.35" meanHaltingDuration="1.33" maxHaltingDuration="2.00" haltingDurationSum="8.00" meanIntervalHaltingDuration="1.33" maxIntervalHaltingDuration="2.00" intervalHaltingDurationSum="8.00" startedHalts="7.00" meanVehicleNumber="0.79" maxVehicleNumber="3" />
   <interval begin="22400.00" end="22500.00" id="e2_L40279_2_3" sampledSeconds="17.00" nVehEntered="2" nVehLeft="3" nVehSeen="3" meanSpeed="5.50" meanTimeLoss="3.17" meanOccupancy="0.40" maxOccupancy="2.54" meanMaxJamLengthInVehicles="0.01" meanMaxJamLengthInMeters="0.05" maxJamLengthInVehicles="1" maxJamLengthInMeters="4.62" jamLengthInVehiclesSum="1" jamLengthInMetersSum="4.62" meanHaltingDuration="1.50" maxHaltingDuration="2.00" haltingDurationSum="3.00" meanIntervalHaltingDuration="1.50" maxIntervalHaltingDuration="2.00" intervalHaltingDurationSum="3.00" startedHalts="2.00" meanVehicleNumber="0.17" maxVehicleNumber="1" />
   <interval begin="22500.00" end="22600.00" id="e2_L40279_2_3" sampledSeconds="65.84" nVehEntered="10" nVehLeft="10" nVehSeen="10" meanSpeed="5.77" meanTimeLoss="3.54" meanOccupancy="1.52" maxOccupancy="5.08" meanMaxJamLengthInVehicles="0.02" meanMaxJamLengthInMeters="0.09" maxJamLengthInVehicles="1" maxJamLengthInMeters="4.62" jamLengthInVehiclesSum="2" jamLengthInMetersSum="8.85" meanHaltingDuration="1.50" maxHaltingDuration="2.00" haltingDurationSum="3.00" meanIntervalHaltingDuration="1.50" maxIntervalHaltingDuration="2.00" intervalHaltingDurationSum="3.00" startedHalts="3.00" meanVehicleNumber="0.69" maxVehicleNumber="2" />
   <interval begin="22600.00" end="22700.00" id="e2_L40279_2_3" sampledSeconds="88.59" nVehEntered="11" nVehLeft="11" nVehSeen="11" meanSpeed="4.82" meanTimeLoss="4.95" meanOccupancy="2.02" maxOccupancy="5.08" meanMaxJamLengthInVehicles="0.06" meanMaxJamLengthInMeters="0.27" maxJamLengthInVehicles="1" maxJamLengthInMeters="4.62" jamLengthInVehiclesSum="6" jamLengthInMetersSum="26.52" meanHaltingDuration="1.86" maxHaltingDuration="3.00" haltingDurationSum="13.00" meanIntervalHaltingDuration="1.86" maxIntervalHaltingDuration="3.00" intervalHaltingDurationSum="13.00" startedHalts="7.00" meanVehicleNumber="0.93" maxVehicleNumber="2" />
   <interval begin="22700.00" end="22800.00" id="e2_L40279_2_3" sampledSeconds="20.35" nVehEntered="5" nVehLeft="5" nVehSeen="5" meanSpeed="8.16" meanTimeLoss="1.41" meanOccupancy="0.42" maxOccupancy="2.54" meanMaxJamLengthInVehicles="0.00" meanMaxJamLengthInMeters="0.00" maxJamLengthInVehicles="0" maxJamLengthInMeters="0.00" jamLengthInVehiclesSum="0" jamLengthInMetersSum="0.00" meanHaltingDuration="0.00" maxHaltingDuration="0.00" haltingDurationSum="0.00" meanIntervalHaltingDuration="0.00" maxIntervalHaltingDuration="0.00" intervalHaltingDurationSum="0.00" startedHalts="0.00" meanVehicleNumber="0.23" maxVehicleNumber="1" />
   <interval begin="22800.00" end="22900.00" id="e2_L40279_2_3" sampledSeconds="0.00" nVehEntered="0" nVehLeft="0" nVehSeen="0" meanSpeed="-1.00" meanTimeLoss="-1.00" meanOccupancy="0.00" maxOccupancy="0.00" meanMaxJamLengthInVehicles="0.00" meanMaxJamLengthInMeters="0.00" maxJamLengthInVehicles="0" maxJamLengthInMeters="0.00" jamLengthInVehiclesSum="0" jamLengthInMetersSum="0.00" meanHaltingDuration="0.00" maxHaltingDuration="0.00" haltingDurationSum="0.00" meanIntervalHaltingDuration="0.00" maxIntervalHaltingDuration="0.00" intervalHaltingDurationSum="0.00" startedHalts="0.00" meanVehicleNumber="0.00" maxVehicleNumber="0" />
   <interval begin="22900.00" end="23000.00" id="e2_L40279_2_3" sampledSeconds="58.48" nVehEntered="6" nVehLeft="4" nVehSeen="6" meanSpeed="2.43" meanTimeLoss="7.85" meanOccupancy="1.42" maxOccupancy="5.08" meanMaxJamLengthInVehicles="0.29" meanMaxJamLengthInMeters="1.53" maxJamLengthInVehicles="2" maxJamLengthInMeters="18.65" jamLengthInVehiclesSum="29" jamLengthInMetersSum="152.76" meanHaltingDuration="8.25" maxHaltingDuration="18.00" haltingDurationSum="33.00" meanIntervalHaltingDuration="8.25" maxIntervalHaltingDuration="18.00" intervalHaltingDurationSum="33.00" startedHalts="4.00" meanVehicleNumber="0.59" maxVehicleNumber="2" />
   <interval begin="23000.00" end="23100.00" id="e2_L40279_2_3" sampledSeconds="866.00" nVehEntered="14" nVehLeft="0" nVehSeen="16" meanSpeed="0.24" meanTimeLoss="53.06" meanOccupancy="22.01" maxOccupancy="40.66" meanMaxJamLengthInVehicles="8.09" meanMaxJamLengthInMeters="67.07" maxJamLengthInVehicles="15" maxJamLengthInMeters="123.51" jamLengthInVehiclesSum="809" jamLengthInMetersSum="6706.92" meanHaltingDuration="56.20" maxHaltingDuration="118.00" haltingDurationSum="843.00" meanIntervalHaltingDuration="54.80" maxIntervalHaltingDuration="100.00" intervalHaltingDurationSum="822.00" startedHalts="13.00" meanVehicleNumber="8.66" maxVehicleNumber="16" />
   <interval begin="23100.00" end="23200.00" id="e2_L40279_2_3" sampledSeconds="1867.00" nVehEntered="3" nVehLeft="0" nVehSeen="19" meanSpeed="0.02" meanTimeLoss="98.09" meanOccupancy="47.44" maxOccupancy="48.28" meanMaxJamLengthInVehicles="18.53" meanMaxJamLengthInMeters="148.16" maxJamLengthInVehicles="19" maxJamLengthInMeters="151.46" jamLengthInVehiclesSum="1853" jamLengthInMetersSum="14816.00" meanHaltingDuration="135.05" maxHaltingDuration="218.00" haltingDurationSum="2701.00" meanIntervalHaltingDuration="92.90" maxIntervalHaltingDuration="100.00" intervalHaltingDurationSum="1858.00" startedHalts="5.00" meanVehicleNumber="18.67" maxVehicleNumber="19" />
   <interval begin="23200.00" end="23300.00" id="e2_L40279_2_3" sampledSeconds="1900.00" nVehEntered="0" nVehLeft="0" nVehSeen="19" meanSpeed="0.00" meanTimeLoss="100.00" meanOccupancy="48.28" maxOccupancy="48.28" meanMaxJamLengthInVehicles="19.00" meanMaxJamLengthInMeters="151.43" maxJamLengthInVehicles="19" maxJamLengthInMeters="151.43" jamLengthInVehiclesSum="1900" jamLengthInMetersSum="15143.19" meanHaltingDuration="242.10" maxHaltingDuration="318.00" haltingDurationSum="4600.00" meanIntervalHaltingDuration="100.00" maxIntervalHaltingDuration="100.00" intervalHaltingDurationSum="1900.00" startedHalts="0.00" meanVehicleNumber="19.00" maxVehicleNumber="19" />
   <interval begin="23300.00" end="23400.00" id="e2_L40279_2_3" sampledSeconds="1900.00" nVehEntered="0" nVehLeft="0" nVehSeen="19" meanSpeed="0.00" meanTimeLoss="100.00" meanOccupancy="48.28" maxOccupancy="48.28" meanMaxJamLengthInVehicles="19.00" meanMaxJamLengthInMeters="151.43" maxJamLengthInVehicles="19" maxJamLengthInMeters="151.43" jamLengthInVehiclesSum="1900" jamLengthInMetersSum="15143.19" meanHaltingDuration="342.11" maxHaltingDuration="418.00" haltingDurationSum="6500.00" meanIntervalHaltingDuration="100.00" maxIntervalHaltingDuration="100.00" intervalHaltingDurationSum="1900.00" startedHalts="0.00" meanVehicleNumber="19.00" maxVehicleNumber="19" />
   <interval begin="23400.00" end="23500.00" id="e2_L40279_2_3" sampledSeconds="1900.00" nVehEntered="0" nVehLeft="0" nVehSeen="19" meanSpeed="0.00" meanTimeLoss="100.00" meanOccupancy="48.28" maxOccupancy="48.28" meanMaxJamLengthInVehicles="19.00" meanMaxJamLengthInMeters="151.43" maxJamLengthInVehicles="19" maxJamLengthInMeters="151.43" jamLengthInVehiclesSum="1900" jamLengthInMetersSum="15143.19" meanHaltingDuration="442.11" maxHaltingDuration="518.00" haltingDurationSum="8400.00" meanIntervalHaltingDuration="100.00" maxIntervalHaltingDuration="100.00" intervalHaltingDurationSum="1900.00" startedHalts="0.00" meanVehicleNumber="19.00" maxVehicleNumber="19" />
   <interval begin="23500.00" end="23600.00" id="e2_L40279_2_3" sampledSeconds="1900.00" nVehEntered="0" nVehLeft="0" nVehSeen="19" meanSpeed="0.00" meanTimeLoss="100.00" meanOccupancy="48.28" maxOccupancy="48.28" meanMaxJamLengthInVehicles="19.00" meanMaxJamLengthInMeters="151.43" maxJamLengthInVehicles="19" maxJamLengthInMeters="151.43" jamLengthInVehiclesSum="1900" jamLengthInMetersSum="15143.19" meanHaltingDuration="542.11" maxHaltingDuration="618.00" haltingDurationSum="10300.00" meanIntervalHaltingDuration="100.00" maxIntervalHaltingDuration="100.00" intervalHaltingDurationSum="1900.00" startedHalts="0.00" meanVehicleNumber="19.00" maxVehicleNumber="19" />
   <interval begin="23600.00" end="23700.00" id="e2_L40279_2_3" sampledSeconds="1900.00" nVehEntered="0" nVehLeft="0" nVehSeen="19" meanSpeed="0.00" meanTimeLoss="100.00" meanOccupancy="48.28" maxOccupancy="48.28" meanMaxJamLengthInVehicles="19.00" meanMaxJamLengthInMeters="151.43" maxJamLengthInVehicles="19" maxJamLengthInMeters="151.43" jamLengthInVehiclesSum="1900" jamLengthInMetersSum="15143.19" meanHaltingDuration="642.11" maxHaltingDuration="718.00" haltingDurationSum="12200.00" meanIntervalHaltingDuration="100.00" maxIntervalHaltingDuration="100.00" intervalHaltingDurationSum="1900.00" startedHalts="0.00" meanVehicleNumber="19.00" maxVehicleNumber="19" />
   <interval begin="23700.00" end="23800.00" id="e2_L40279_2_3" sampledSeconds="1900.00" nVehEntered="0" nVehLeft="0" nVehSeen="19" meanSpeed="0.00" meanTimeLoss="100.00" meanOccupancy="48.28" maxOccupancy="48.28" meanMaxJamLengthInVehicles="19.00" meanMaxJamLengthInMeters="151.43" maxJamLengthInVehicles="19" maxJamLengthInMeters="151.43" jamLengthInVehiclesSum="1900" jamLengthInMetersSum="15143.19" meanHaltingDuration="742.11" maxHaltingDuration="818.00" haltingDurationSum="14100.00" meanIntervalHaltingDuration="100.00" maxIntervalHaltingDuration="100.00" intervalHaltingDurationSum="1900.00" startedHalts="0.00" meanVehicleNumber="19.00" maxVehicleNumber="19" />
   <interval begin="23800.00" end="23900.00" id="e2_L40279_2_3" sampledSeconds="1900.00" nVehEntered="0" nVehLeft="0" nVehSeen="19" meanSpeed="0.00" meanTimeLoss="100.00" meanOccupancy="48.28" maxOccupancy="48.28" meanMaxJamLengthInVehicles="19.00" meanMaxJamLengthInMeters="151.43" maxJamLengthInVehicles="19" maxJamLengthInMeters="151.43" jamLengthInVehiclesSum="1900" jamLengthInMetersSum="15143.19" meanHaltingDuration="842.11" maxHaltingDuration="918.00" haltingDurationSum="16000.00" meanIntervalHaltingDuration="100.00" maxIntervalHaltingDuration="100.00" intervalHaltingDurationSum="1900.00" startedHalts="0.00" meanVehicleNumber="19.00" maxVehicleNumber="19" />
   <interval begin="23900.00" end="24000.00" id="e2_L40279_2_3" sampledSeconds="1900.00" nVehEntered="0" nVehLeft="0" nVehSeen="19" meanSpeed="0.00" meanTimeLoss="100.00" meanOccupancy="48.28" maxOccupancy="48.28" meanMaxJamLengthInVehicles="19.00" meanMaxJamLengthInMeters="151.43" maxJamLengthInVehicles="19" maxJamLengthInMeters="151.50" jamLengthInVehiclesSum="1900" jamLengthInMetersSum="15143.50" meanHaltingDuration="942.11" maxHaltingDuration="1018.00" haltingDurationSum="17900.00" meanIntervalHaltingDuration="100.00" maxIntervalHaltingDuration="100.00" intervalHaltingDurationSum="1900.00" startedHalts="0.00" meanVehicleNumber="19.00" maxVehicleNumber="19" />
   <interval begin="24000.00" end="24100.00" id="e2_L40279_2_3" sampledSeconds="1391.41" nVehEntered="4" nVehLeft="12" nVehSeen="23" meanSpeed="1.13" meanTimeLoss="55.02" meanOccupancy="35.18" maxOccupancy="48.28" meanMaxJamLengthInVehicles="6.59" meanMaxJamLengthInMeters="50.01" maxJamLengthInVehicles="19" maxJamLengthInMeters="152.82" jamLengthInVehiclesSum="731" jamLengthInMetersSum="5407.72" meanHaltingDuration="124.21" maxHaltingDuration="1027.00" haltingDurationSum="18756.00" meanIntervalHaltingDuration="5.67" maxIntervalHaltingDuration="38.00" intervalHaltingDurationSum="856.00" startedHalts="135.00" meanVehicleNumber="13.93" maxVehicleNumber="19" />
   <interval begin="24100.00" end="24200.00" id="e2_L40279_2_3" sampledSeconds="1417.94" nVehEntered="10" nVehLeft="4" nVehSeen="21" meanSpeed="0.49" meanTimeLoss="64.87" meanOccupancy="35.98" maxOccupancy="43.20" meanMaxJamLengthInVehicles="11.07" meanMaxJamLengthInMeters="98.53" maxJamLengthInVehicles="17" maxJamLengthInMeters="151.75" jamLengthInVehiclesSum="1184" jamLengthInMetersSum="10302.12" meanHaltingDuration="16.11" maxHaltingDuration="79.00" haltingDurationSum="1305.00" meanIntervalHaltingDuration="15.51" maxIntervalHaltingDuration="79.00" intervalHaltingDurationSum="1256.00" startedHalts="72.00" meanVehicleNumber="14.18" maxVehicleNumber="17" />
   <interval begin="24200.00" end="24300.00" id="e2_L40279_2_3" sampledSeconds="1625.00" nVehEntered="4" nVehLeft="3" nVehSeen="21" meanSpeed="0.30" meanTimeLoss="75.53" meanOccupancy="41.29" maxOccupancy="45.74" meanMaxJamLengthInVehicles="13.04" meanMaxJamLengthInMeters="113.12" maxJamLengthInVehicles="18" maxJamLengthInMeters="159.15" jamLengthInVehiclesSum="1445" jamLengthInMetersSum="12545.93" meanHaltingDuration="29.18" maxHaltingDuration="92.00" haltingDurationSum="2422.00" meanIntervalHaltingDuration="17.91" maxIntervalHaltingDuration="57.00" intervalHaltingDurationSum="1487.00" startedHalts="68.00" meanVehicleNumber="16.25" maxVehicleNumber="18" />
   <interval begin="24300.00" end="24400.00" id="e2_L40279_2_3" sampledSeconds="1473.56" nVehEntered="2" nVehLeft="13" nVehSeen="20" meanSpeed="1.01" meanTimeLoss="67.69" meanOccupancy="37.25" maxOccupancy="45.74" meanMaxJamLengthInVehicles="10.68" meanMaxJamLengthInMeters="95.07" maxJamLengthInVehicles="18" maxJamLengthInMeters="161.82" jamLengthInVehiclesSum="1076" jamLengthInMetersSum="9544.45" meanHaltingDuration="40.09" maxHaltingDuration="103.00" haltingDurationSum="1844.00" meanIntervalHaltingDuration="24.00" maxIntervalHaltingDuration="77.00" intervalHaltingDurationSum="1104.00" startedHalts="28.00" meanVehicleNumber="14.77" maxVehicleNumber="18" />
   <interval begin="24400.00" end="24500.00" id="e2_L40279_2_3" sampledSeconds="473.35" nVehEntered="10" nVehLeft="14" nVehSeen="17" meanSpeed="2.93" meanTimeLoss="21.32" meanOccupancy="11.80" maxOccupancy="20.03" meanMaxJamLengthInVehicles="0.74" meanMaxJamLengthInMeters="4.08" maxJamLengthInVehicles="3" maxJamLengthInMeters="31.43" jamLengthInVehiclesSum="76" jamLengthInMetersSum="417.70" meanHaltingDuration="2.58" maxHaltingDuration="19.00" haltingDurationSum="111.00" meanIntervalHaltingDuration="2.58" maxIntervalHaltingDuration="19.00" intervalHaltingDurationSum="111.00" startedHalts="45.00" meanVehicleNumber="4.77" maxVehicleNumber="8" />
   <interval begin="24500.00" end="24600.00" id="e2_L40279_2_3" sampledSeconds="672.00" nVehEntered="5" nVehLeft="0" nVehSeen="8" meanSpeed="0.06" meanTimeLoss="83.60" meanOccupancy="17.08" maxOccupancy="20.33" meanMaxJamLengthInVehicles="6.54" meanMaxJamLengthInMeters="112.91" maxJamLengthInVehicles="8" maxJamLengthInMeters="158.45" jamLengthInVehiclesSum="654" jamLengthInMetersSum="11291.27" meanHaltingDuration="86.88" maxHaltingDuration="119.00" haltingDurationSum="695.00" meanIntervalHaltingDuration="82.50" maxIntervalHaltingDuration="100.00" intervalHaltingDurationSum="660.00" startedHalts="6.00" meanVehicleNumber="6.72" maxVehicleNumber="8" />
   <interval begin="24600.00" end="24700.00" id="e2_L40279_2_3" sampledSeconds="800.00" nVehEntered="0" nVehLeft="0" nVehSeen="8" meanSpeed="0.00" meanTimeLoss="100.00" meanOccupancy="20.33" maxOccupancy="20.33" meanMaxJamLengthInVehicles="8.00" meanMaxJamLengthInMeters="158.42" maxJamLengthInVehicles="8" maxJamLengthInMeters="158.42" jamLengthInVehiclesSum="800" jamLengthInMetersSum="15842.27" meanHaltingDuration="186.88" maxHaltingDuration="219.00" haltingDurationSum="1495.00" meanIntervalHaltingDuration="100.00" maxIntervalHaltingDuration="100.00" intervalHaltingDurationSum="800.00" startedHalts="0.00" meanVehicleNumber="8.00" maxVehicleNumber="8" />
   <interval begin="24700.00" end="24800.00" id="e2_L40279_2_3" sampledSeconds="800.00" nVehEntered="0" nVehLeft="0" nVehSeen="8" meanSpeed="0.00" meanTimeLoss="100.00" meanOccupancy="20.33" maxOccupancy="20.33" meanMaxJamLengthInVehicles="8.00" meanMaxJamLengthInMeters="158.42" maxJamLengthInVehicles="8" maxJamLengthInMeters="158.42" jamLengthInVehiclesSum="800" jamLengthInMetersSum="15842.27" meanHaltingDuration="286.88" maxHaltingDuration="319.00" haltingDurationSum="2295.00" meanIntervalHaltingDuration="100.00" maxIntervalHaltingDuration="100.00" intervalHaltingDurationSum="800.00" startedHalts="0.00" meanVehicleNumber="8.00" maxVehicleNumber="8" />
   <interval begin="24800.00" end="24900.00" id="e2_L40279_2_3" sampledSeconds="800.00" nVehEntered="0" nVehLeft="0" nVehSeen="8" meanSpeed="0.00" meanTimeLoss="100.00" meanOccupancy="20.33" maxOccupancy="20.33" meanMaxJamLengthInVehicles="8.00" meanMaxJamLengthInMeters="158.42" maxJamLengthInVehicles="8" maxJamLengthInMeters="158.42" jamLengthInVehiclesSum="800" jamLengthInMetersSum="15842.27" meanHaltingDuration="386.88" maxHaltingDuration="419.00" haltingDurationSum="3095.00" meanIntervalHaltingDuration="100.00" maxIntervalHaltingDuration="100.00" intervalHaltingDurationSum="800.00" startedHalts="0.00" meanVehicleNumber="8.00" maxVehicleNumber="8" />
   <interval begin="24900.00" end="25000.00" id="e2_L40279_2_3" sampledSeconds="739.00" nVehEntered="5" nVehLeft="4" nVehSeen="13" meanSpeed="0.73" meanTimeLoss="53.54" meanOccupancy="18.77" maxOccupancy="22.87" meanMaxJamLengthInVehicles="4.69" meanMaxJamLengthInMeters="80.69" maxJamLengthInVehicles="8" maxJamLengthInMeters="158.56" jamLengthInVehiclesSum="510" jamLengthInMetersSum="8317.99" meanHaltingDuration="58.63" maxHaltingDuration="442.00" haltingDurationSum="3635.00" meanIntervalHaltingDuration="8.71" maxIntervalHaltingDuration="55.00" intervalHaltingDurationSum="540.00" startedHalts="56.00" meanVehicleNumber="7.39" maxVehicleNumber="9" />
   <interval begin="25000.00" end="25100.00" id="e2_L40279_2_3" sampledSeconds="629.68" nVehEntered="7" nVehLeft="10" nVehSeen="16" meanSpeed="2.67" meanTimeLoss="30.96" meanOccupancy="15.80" maxOccupancy="22.70" meanMaxJamLengthInVehicles="2.12" meanMaxJamLengthInMeters="18.43" maxJamLengthInVehicles="8" maxJamLengthInMeters="74.93" jamLengthInVehiclesSum="222" jamLengthInMetersSum="1915.54" meanHaltingDuration="6.33" maxHaltingDuration="27.00" haltingDurationSum="304.00" meanIntervalHaltingDuration="5.50" maxIntervalHaltingDuration="22.00" intervalHaltingDurationSum="264.00" startedHalts="42.00" meanVehicleNumber="6.33" maxVehicleNumber="9" />
   <interval begin="25100.00" end="25200.00" id="e2_L40279_2_3" sampledSeconds="560.00" nVehEntered="2" nVehLeft="5" nVehSeen="8" meanSpeed="0.70" meanTimeLoss="66.06" meanOccupancy="14.21" maxOccupancy="17.79" meanMaxJamLengthInVehicles="4.02" meanMaxJamLengthInMeters="69.32" maxJamLengthInVehicles="7" maxJamLengthInMeters="148.27" jamLengthInVehiclesSum="421" jamLengthInMetersSum="7063.48" meanHaltingDuration="18.85" maxHaltingDuration="63.00" haltingDurationSum="509.00" meanIntervalHaltingDuration="16.41" maxIntervalHaltingDuration="61.00" intervalHaltingDurationSum="443.00" startedHalts="22.00" meanVehicleNumber="5.60" maxVehicleNumber="7" />
   <interval begin="25200.00" end="25300.00" id="e2_L40279_2_3" sampledSeconds="400.00" nVehEntered="4" nVehLeft="2" nVehSeen="7" meanSpeed="0.79" meanTimeLoss="53.55" meanOccupancy="10.15" maxOccupancy="12.71" meanMaxJamLengthInVehicles="2.97" meanMaxJamLengthInMeters="64.49" maxJamLengthInVehicles="5" maxJamLengthInMeters="123.94" jamLengthInVehiclesSum="297" jamLengthInMetersSum="6448.92" meanHaltingDuration="38.00" maxHaltingDuration="75.00" haltingDurationSum="304.00" meanIntervalHaltingDuration="38.00" maxIntervalHaltingDuration="75.00" intervalHaltingDurationSum="304.00" startedHalts="9.00" meanVehicleNumber="4.00" maxVehicleNumber="5" />
   <interval begin="25300.00" end="25400.00" id="e2_L40279_2_3" sampledSeconds="500.00" nVehEntered="0" nVehLeft="0" nVehSeen="5" meanSpeed="0.00" meanTimeLoss="100.00" meanOccupancy="12.71" maxOccupancy="12.71" meanMaxJamLengthInVehicles="5.00" meanMaxJamLengthInMeters="123.47" maxJamLengthInVehicles="5" maxJamLengthInMeters="123.47" jamLengthInVehiclesSum="500" jamLengthInMetersSum="12346.78" meanHaltingDuration="160.00" maxHaltingDuration="175.00" haltingDurationSum="800.00" meanIntervalHaltingDuration="100.00" maxIntervalHaltingDuration="100.00" intervalHaltingDurationSum="500.00" startedHalts="0.00" meanVehicleNumber="5.00" maxVehicleNumber="5" />
   <interval begin="25400.00" end="25500.00" id="e2_L40279_2_3" sampledSeconds="500.00" nVehEntered="0" nVehLeft="0" nVehSeen="5" meanSpeed="0.00" meanTimeLoss="100.00" meanOccupancy="12.71" maxOccupancy="12.71" meanMaxJamLengthInVehicles="5.00" meanMaxJamLengthInMeters="123.47" maxJamLengthInVehicles="5" maxJamLengthInMeters="123.47" jamLengthInVehiclesSum="500" jamLengthInMetersSum="12346.76" meanHaltingDuration="260.00" maxHaltingDuration="275.00" haltingDurationSum="1300.00" meanIntervalHaltingDuration="100.00" maxIntervalHaltingDuration="100.00" intervalHaltingDurationSum="500.00" startedHalts="0.00" meanVehicleNumber="5.00" maxVehicleNumber="5" />
   <interval begin="25500.00" end="25600.00" id="e2_L40279_2_3" sampledSeconds="500.00" nVehEntered="0" nVehLeft="0" nVehSeen="5" meanSpeed="0.00" meanTimeLoss="100.00" meanOccupancy="12.71" maxOccupancy="12.71" meanMaxJamLengthInVehicles="5.00" meanMaxJamLengthInMeters="123.47" maxJamLengthInVehicles="5" maxJamLengthInMeters="123.47" jamLengthInVehiclesSum="500" jamLengthInMetersSum="12346.76" meanHaltingDuration="360.00" maxHaltingDuration="375.00" haltingDurationSum="1800.00" meanIntervalHaltingDuration="100.00" maxIntervalHaltingDuration="100.00" intervalHaltingDurationSum="500.00" startedHalts="0.00" meanVehicleNumber="5.00" maxVehicleNumber="5" />
   <interval begin="25600.00" end="25700.00" id="e2_L40279_2_3" sampledSeconds="479.63" nVehEntered="1" nVehLeft="2" nVehSeen="6" meanSpeed="0.65" meanTimeLoss="75.80" meanOccupancy="12.16" maxOccupancy="12.71" meanMaxJamLengthInVehicles="3.88" meanMaxJamLengthInMeters="93.61" maxJamLengthInVehicles="5" maxJamLengthInMeters="125.56" jamLengthInVehiclesSum="388" jamLengthInMetersSum="9360.82" meanHaltingDuration="312.86" maxHaltingDuration="441.00" haltingDurationSum="2190.00" meanIntervalHaltingDuration="55.71" maxIntervalHaltingDuration="91.00" intervalHaltingDurationSum="390.00" startedHalts="2.00" meanVehicleNumber="4.80" maxVehicleNumber="5" />
   <interval begin="25700.00" end="25800.00" id="e2_L40279_2_3" sampledSeconds="508.32" nVehEntered="11" nVehLeft="11" nVehSeen="15" meanSpeed="3.68" meanTimeLoss="23.92" meanOccupancy="12.80" maxOccupancy="17.65" meanMaxJamLengthInVehicles="0.52" meanMaxJamLengthInMeters="3.87" maxJamLengthInVehicles="3" maxJamLengthInMeters="30.77" jamLengthInVehiclesSum="55" jamLengthInMetersSum="400.40" meanHaltingDuration="2.59" maxHaltingDuration="9.00" haltingDurationSum="75.00" meanIntervalHaltingDuration="2.59" maxIntervalHaltingDuration="9.00" intervalHaltingDurationSum="75.00" startedHalts="32.00" meanVehicleNumber="5.09" maxVehicleNumber="7" />
   <interval begin="25800.00" end="25900.00" id="e2_L40279_2_3" sampledSeconds="191.03" nVehEntered="7" nVehLeft="11" nVehSeen="11" meanSpeed="4.18" meanTimeLoss="11.56" meanOccupancy="4.74" maxOccupancy="12.59" meanMaxJamLengthInVehicles="0.10" meanMaxJamLengthInMeters="0.43" maxJamLengthInVehicles="1" maxJamLengthInMeters="4.62" jamLengthInVehiclesSum="10" jamLengthInMetersSum="43.28" meanHaltingDuration="1.57" maxHaltingDuration="3.00" haltingDurationSum="22.00" meanIntervalHaltingDuration="1.50" maxIntervalHaltingDuration="3.00" intervalHaltingDurationSum="21.00" startedHalts="15.00" meanVehicleNumber="1.93" maxVehicleNumber="5" />