<?xml version="1.0" encoding="UTF-8"?>

<!-- generated on Sun Feb 17 15:57:00 2019 by 
<configuration xmlns:xsi="http://www.w3.org/2001/XMLSchema-instance" xsi:noNamespaceSchemaLocation="http://sumo.dlr.de/xsd/Configuration.xsd">

    <input>
        <net-file value="/home/sda/Documents/sumo-sathorn-ray/models/sathorn-morning/sathorn_w_fixed_20160404.net.xml"/>
        <route-files value="/home/sda/Documents/sumo-sathorn-ray/models/sathorn-morning/Great-route/sathorn_w_20160422edit2.rou.xml"/>
        <additional-files value="/home/sda/Documents/sumo-sathorn-ray/models/sathorn-morning/sathon_wide_tls_20160418_edited.add.xml,/home/sda/Documents/sumo-sathorn-ray/detectors/sathorn_w_detectors.add.xml"/>
    </input>

    <time>
        <begin value="21600"/>
        <end value="32400"/>
        <step-length value="1"/>
    </time>

    <processing>
        <no-internal-links value="true"/>
        <ignore-junction-blocker value="-1"/>
        <time-to-teleport value="-1"/>
        <eager-insert value="true"/>
        <time-to-impatience value="300"/>
    </processing>

    <report>
        <no-warnings value="true"/>
    </report>

    <random_number>
        <random value="false"/>
        <seed value="20"/>
    </random_number>

    <gui_only>
        <gui-settings-file value="/home/sda/Documents/sumo-sathorn-ray/gui-settings/gui-settings-file-surasak.xml"/>
        <quit-on-end value="true"/>
        <start value="true"/>
        <tracker-interval value="1"/>
    </gui_only>

</configuration>
-->

<detector xmlns:xsi="http://www.w3.org/2001/XMLSchema-instance" xsi:noNamespaceSchemaLocation="http://sumo.dlr.de/xsd/det_e2_file.xsd">
   <interval begin="21600.00" end="21700.00" id="e2_L197#1_1_1" sampledSeconds="0.00" nVehEntered="0" nVehLeft="0" nVehSeen="0" meanSpeed="-1.00" meanTimeLoss="-1.00" meanOccupancy="0.00" maxOccupancy="0.00" meanMaxJamLengthInVehicles="0.00" meanMaxJamLengthInMeters="0.00" maxJamLengthInVehicles="0" maxJamLengthInMeters="0.00" jamLengthInVehiclesSum="0" jamLengthInMetersSum="0.00" meanHaltingDuration="0.00" maxHaltingDuration="0.00" haltingDurationSum="0.00" meanIntervalHaltingDuration="0.00" maxIntervalHaltingDuration="0.00" intervalHaltingDurationSum="0.00" startedHalts="0.00" meanVehicleNumber="0.00" maxVehicleNumber="0" />
   <interval begin="21700.00" end="21800.00" id="e2_L197#1_1_1" sampledSeconds="0.00" nVehEntered="0" nVehLeft="0" nVehSeen="0" meanSpeed="-1.00" meanTimeLoss="-1.00" meanOccupancy="0.00" maxOccupancy="0.00" meanMaxJamLengthInVehicles="0.00" meanMaxJamLengthInMeters="0.00" maxJamLengthInVehicles="0" maxJamLengthInMeters="0.00" jamLengthInVehiclesSum="0" jamLengthInMetersSum="0.00" meanHaltingDuration="0.00" maxHaltingDuration="0.00" haltingDurationSum="0.00" meanIntervalHaltingDuration="0.00" maxIntervalHaltingDuration="0.00" intervalHaltingDurationSum="0.00" startedHalts="0.00" meanVehicleNumber="0.00" maxVehicleNumber="0" />
   <interval begin="21800.00" end="21900.00" id="e2_L197#1_1_1" sampledSeconds="83.86" nVehEntered="7" nVehLeft="2" nVehSeen="7" meanSpeed="11.82" meanTimeLoss="0.65" meanOccupancy="1.77" maxOccupancy="12.67" meanMaxJamLengthInVehicles="0.00" meanMaxJamLengthInMeters="0.00" maxJamLengthInVehicles="0" maxJamLengthInMeters="0.00" jamLengthInVehiclesSum="0" jamLengthInMetersSum="0.00" meanHaltingDuration="0.00" maxHaltingDuration="0.00" haltingDurationSum="0.00" meanIntervalHaltingDuration="0.00" maxIntervalHaltingDuration="0.00" intervalHaltingDurationSum="0.00" startedHalts="0.00" meanVehicleNumber="0.88" maxVehicleNumber="6" />
   <interval begin="21900.00" end="22000.00" id="e2_L197#1_1_1" sampledSeconds="185.75" nVehEntered="12" nVehLeft="15" nVehSeen="17" meanSpeed="11.71" meanTimeLoss="0.69" meanOccupancy="3.73" maxOccupancy="12.67" meanMaxJamLengthInVehicles="0.00" meanMaxJamLengthInMeters="0.00" maxJamLengthInVehicles="0" maxJamLengthInMeters="0.00" jamLengthInVehiclesSum="0" jamLengthInMetersSum="0.00" meanHaltingDuration="0.00" maxHaltingDuration="0.00" haltingDurationSum="0.00" meanIntervalHaltingDuration="0.00" maxIntervalHaltingDuration="0.00" intervalHaltingDurationSum="0.00" startedHalts="0.00" meanVehicleNumber="1.96" maxVehicleNumber="6" />
   <interval begin="22000.00" end="22100.00" id="e2_L197#1_1_1" sampledSeconds="279.39" nVehEntered="23" nVehLeft="16" nVehSeen="25" meanSpeed="5.74" meanTimeLoss="5.99" meanOccupancy="5.88" maxOccupancy="19.01" meanMaxJamLengthInVehicles="1.20" meanMaxJamLengthInMeters="7.09" maxJamLengthInVehicles="4" maxJamLengthInMeters="25.78" jamLengthInVehiclesSum="120" jamLengthInMetersSum="709.10" meanHaltingDuration="31.00" maxHaltingDuration="56.00" haltingDurationSum="124.00" meanIntervalHaltingDuration="31.00" maxIntervalHaltingDuration="56.00" intervalHaltingDurationSum="124.00" startedHalts="5.00" meanVehicleNumber="2.82" maxVehicleNumber="9" />
   <interval begin="22100.00" end="22200.00" id="e2_L197#1_1_1" sampledSeconds="1874.84" nVehEntered="33" nVehLeft="20" nVehSeen="42" meanSpeed="1.42" meanTimeLoss="39.55" meanOccupancy="39.68" maxOccupancy="46.47" meanMaxJamLengthInVehicles="15.62" meanMaxJamLengthInMeters="107.00" maxJamLengthInVehicles="22" maxJamLengthInMeters="151.51" jamLengthInVehiclesSum="1562" jamLengthInMetersSum="10700.04" meanHaltingDuration="70.46" maxHaltingDuration="156.00" haltingDurationSum="1691.00" meanIntervalHaltingDuration="65.29" maxIntervalHaltingDuration="100.00" intervalHaltingDurationSum="1567.00" startedHalts="22.00" meanVehicleNumber="18.80" maxVehicleNumber="22" />
   <interval begin="22200.00" end="22300.00" id="e2_L197#1_1_1" sampledSeconds="2520.85" nVehEntered="20" nVehLeft="12" nVehSeen="42" meanSpeed="0.24" meanTimeLoss="58.87" meanOccupancy="53.19" maxOccupancy="63.37" meanMaxJamLengthInVehicles="24.56" meanMaxJamLengthInMeters="171.93" maxJamLengthInVehicles="30" maxJamLengthInMeters="214.47" jamLengthInVehiclesSum="2456" jamLengthInMetersSum="17193.30" meanHaltingDuration="130.53" maxHaltingDuration="247.00" haltingDurationSum="3916.00" meanIntervalHaltingDuration="79.83" maxIntervalHaltingDuration="100.00" intervalHaltingDurationSum="2395.00" startedHalts="9.00" meanVehicleNumber="25.25" maxVehicleNumber="30" />
   <interval begin="22300.00" end="22400.00" id="e2_L197#1_1_1" sampledSeconds="3068.31" nVehEntered="2" nVehLeft="1" nVehSeen="32" meanSpeed="0.09" meanTimeLoss="95.18" meanOccupancy="64.36" maxOccupancy="65.48" meanMaxJamLengthInVehicles="30.29" meanMaxJamLengthInMeters="212.76" maxJamLengthInVehicles="31" maxJamLengthInMeters="221.26" jamLengthInVehiclesSum="3062" jamLengthInMetersSum="21492.20" meanHaltingDuration="196.82" maxHaltingDuration="305.00" haltingDurationSum="6692.00" meanIntervalHaltingDuration="88.91" maxIntervalHaltingDuration="100.00" intervalHaltingDurationSum="3023.00" startedHalts="5.00" meanVehicleNumber="30.70" maxVehicleNumber="31" />
   <interval begin="22400.00" end="22500.00" id="e2_L197#1_1_1" sampledSeconds="3100.00" nVehEntered="0" nVehLeft="0" nVehSeen="31" meanSpeed="0.00" meanTimeLoss="100.00" meanOccupancy="65.48" maxOccupancy="65.48" meanMaxJamLengthInVehicles="31.00" meanMaxJamLengthInMeters="214.35" maxJamLengthInVehicles="31" maxJamLengthInMeters="214.40" jamLengthInVehiclesSum="3100" jamLengthInMetersSum="21435.24" meanHaltingDuration="292.97" maxHaltingDuration="405.00" haltingDurationSum="9082.00" meanIntervalHaltingDuration="100.00" maxIntervalHaltingDuration="100.00" intervalHaltingDurationSum="3100.00" startedHalts="0.00" meanVehicleNumber="31.00" maxVehicleNumber="31" />
   <interval begin="22500.00" end="22600.00" id="e2_L197#1_1_1" sampledSeconds="3100.00" nVehEntered="0" nVehLeft="0" nVehSeen="31" meanSpeed="0.00" meanTimeLoss="100.00" meanOccupancy="65.48" maxOccupancy="65.48" meanMaxJamLengthInVehicles="31.00" meanMaxJamLengthInMeters="214.35" maxJamLengthInVehicles="31" maxJamLengthInMeters="214.35" jamLengthInVehiclesSum="3100" jamLengthInMetersSum="21435.10" meanHaltingDuration="392.97" maxHaltingDuration="505.00" haltingDurationSum="12182.00" meanIntervalHaltingDuration="100.00" maxIntervalHaltingDuration="100.00" intervalHaltingDurationSum="3100.00" startedHalts="0.00" meanVehicleNumber="31.00" maxVehicleNumber="31" />
   <interval begin="22600.00" end="22700.00" id="e2_L197#1_1_1" sampledSeconds="3100.00" nVehEntered="0" nVehLeft="0" nVehSeen="31" meanSpeed="0.00" meanTimeLoss="100.00" meanOccupancy="65.48" maxOccupancy="65.48" meanMaxJamLengthInVehicles="31.00" meanMaxJamLengthInMeters="214.35" maxJamLengthInVehicles="31" maxJamLengthInMeters="214.35" jamLengthInVehiclesSum="3100" jamLengthInMetersSum="21435.10" meanHaltingDuration="492.97" maxHaltingDuration="605.00" haltingDurationSum="15282.00" meanIntervalHaltingDuration="100.00" maxIntervalHaltingDuration="100.00" intervalHaltingDurationSum="3100.00" startedHalts="0.00" meanVehicleNumber="31.00" maxVehicleNumber="31" />
   <interval begin="22700.00" end="22800.00" id="e2_L197#1_1_1" sampledSeconds="3100.00" nVehEntered="0" nVehLeft="0" nVehSeen="31" meanSpeed="0.00" meanTimeLoss="100.00" meanOccupancy="65.48" maxOccupancy="65.48" meanMaxJamLengthInVehicles="31.00" meanMaxJamLengthInMeters="214.35" maxJamLengthInVehicles="31" maxJamLengthInMeters="214.35" jamLengthInVehiclesSum="3100" jamLengthInMetersSum="21435.10" meanHaltingDuration="592.97" maxHaltingDuration="705.00" haltingDurationSum="18382.00" meanIntervalHaltingDuration="100.00" maxIntervalHaltingDuration="100.00" intervalHaltingDurationSum="3100.00" startedHalts="0.00" meanVehicleNumber="31.00" maxVehicleNumber="31" />
   <interval begin="22800.00" end="22900.00" id="e2_L197#1_1_1" sampledSeconds="3100.00" nVehEntered="0" nVehLeft="0" nVehSeen="31" meanSpeed="0.00" meanTimeLoss="100.00" meanOccupancy="65.48" maxOccupancy="65.48" meanMaxJamLengthInVehicles="31.00" meanMaxJamLengthInMeters="214.35" maxJamLengthInVehicles="31" maxJamLengthInMeters="214.35" jamLengthInVehiclesSum="3100" jamLengthInMetersSum="21435.10" meanHaltingDuration="692.97" maxHaltingDuration="805.00" haltingDurationSum="21482.00" meanIntervalHaltingDuration="100.00" maxIntervalHaltingDuration="100.00" intervalHaltingDurationSum="3100.00" startedHalts="0.00" meanVehicleNumber="31.00" maxVehicleNumber="31" />
   <interval begin="22900.00" end="23000.00" id="e2_L197#1_1_1" sampledSeconds="3100.00" nVehEntered="0" nVehLeft="0" nVehSeen="31" meanSpeed="0.00" meanTimeLoss="100.00" meanOccupancy="65.48" maxOccupancy="65.48" meanMaxJamLengthInVehicles="31.00" meanMaxJamLengthInMeters="214.35" maxJamLengthInVehicles="31" maxJamLengthInMeters="214.35" jamLengthInVehiclesSum="3100" jamLengthInMetersSum="21435.10" meanHaltingDuration="792.97" maxHaltingDuration="905.00" haltingDurationSum="24582.00" meanIntervalHaltingDuration="100.00" maxIntervalHaltingDuration="100.00" intervalHaltingDurationSum="3100.00" startedHalts="0.00" meanVehicleNumber="31.00" maxVehicleNumber="31" />
   <interval begin="23000.00" end="23100.00" id="e2_L197#1_1_1" sampledSeconds="3100.00" nVehEntered="0" nVehLeft="0" nVehSeen="31" meanSpeed="0.00" meanTimeLoss="100.00" meanOccupancy="65.48" maxOccupancy="65.48" meanMaxJamLengthInVehicles="31.00" meanMaxJamLengthInMeters="214.35" maxJamLengthInVehicles="31" maxJamLengthInMeters="214.35" jamLengthInVehiclesSum="3100" jamLengthInMetersSum="21435.10" meanHaltingDuration="892.97" maxHaltingDuration="1005.00" haltingDurationSum="27682.00" meanIntervalHaltingDuration="100.00" maxIntervalHaltingDuration="100.00" intervalHaltingDurationSum="3100.00" startedHalts="0.00" meanVehicleNumber="31.00" maxVehicleNumber="31" />
   <interval begin="23100.00" end="23200.00" id="e2_L197#1_1_1" sampledSeconds="3100.00" nVehEntered="0" nVehLeft="0" nVehSeen="31" meanSpeed="0.00" meanTimeLoss="100.00" meanOccupancy="65.48" maxOccupancy="65.48" meanMaxJamLengthInVehicles="31.00" meanMaxJamLengthInMeters="214.35" maxJamLengthInVehicles="31" maxJamLengthInMeters="214.35" jamLengthInVehiclesSum="3100" jamLengthInMetersSum="21435.10" meanHaltingDuration="992.97" maxHaltingDuration="1105.00" haltingDurationSum="30782.00" meanIntervalHaltingDuration="100.00" maxIntervalHaltingDuration="100.00" intervalHaltingDurationSum="3100.00" startedHalts="0.00" meanVehicleNumber="31.00" maxVehicleNumber="31" />
   <interval begin="23200.00" end="23300.00" id="e2_L197#1_1_1" sampledSeconds="3100.00" nVehEntered="0" nVehLeft="0" nVehSeen="31" meanSpeed="0.00" meanTimeLoss="100.00" meanOccupancy="65.48" maxOccupancy="65.48" meanMaxJamLengthInVehicles="31.00" meanMaxJamLengthInMeters="214.35" maxJamLengthInVehicles="31" maxJamLengthInMeters="214.35" jamLengthInVehiclesSum="3100" jamLengthInMetersSum="21435.10" meanHaltingDuration="1092.97" maxHaltingDuration="1205.00" haltingDurationSum="33882.00" meanIntervalHaltingDuration="100.00" maxIntervalHaltingDuration="100.00" intervalHaltingDurationSum="3100.00" startedHalts="0.00" meanVehicleNumber="31.00" maxVehicleNumber="31" />
   <interval begin="23300.00" end="23400.00" id="e2_L197#1_1_1" sampledSeconds="3100.00" nVehEntered="0" nVehLeft="0" nVehSeen="31" meanSpeed="0.00" meanTimeLoss="100.00" meanOccupancy="65.48" maxOccupancy="65.48" meanMaxJamLengthInVehicles="31.00" meanMaxJamLengthInMeters="214.35" maxJamLengthInVehicles="31" maxJamLengthInMeters="214.35" jamLengthInVehiclesSum="3100" jamLengthInMetersSum="21435.10" meanHaltingDuration="1192.97" maxHaltingDuration="1305.00" haltingDurationSum="36982.00" meanIntervalHaltingDuration="100.00" maxIntervalHaltingDuration="100.00" intervalHaltingDurationSum="3100.00" startedHalts="0.00" meanVehicleNumber="31.00" maxVehicleNumber="31" />
   <interval begin="23400.00" end="23500.00" id="e2_L197#1_1_1" sampledSeconds="3025.20" nVehEntered="1" nVehLeft="2" nVehSeen="32" meanSpeed="0.14" meanTimeLoss="93.48" meanOccupancy="63.66" maxOccupancy="65.48" meanMaxJamLengthInVehicles="25.87" meanMaxJamLengthInMeters="179.81" maxJamLengthInVehicles="31" maxJamLengthInMeters="215.72" jamLengthInVehiclesSum="2878" jamLengthInMetersSum="19970.41" meanHaltingDuration="438.63" maxHaltingDuration="1356.00" haltingDurationSum="39915.00" meanIntervalHaltingDuration="32.23" maxIntervalHaltingDuration="94.00" intervalHaltingDurationSum="2933.00" startedHalts="61.00" meanVehicleNumber="30.27" maxVehicleNumber="31" />
   <interval begin="23500.00" end="23600.00" id="e2_L197#1_1_1" sampledSeconds="3099.00" nVehEntered="1" nVehLeft="0" nVehSeen="31" meanSpeed="0.01" meanTimeLoss="99.90" meanOccupancy="65.42" maxOccupancy="65.48" meanMaxJamLengthInVehicles="30.99" meanMaxJamLengthInMeters="214.53" maxJamLengthInVehicles="31" maxJamLengthInMeters="216.55" jamLengthInVehiclesSum="3099" jamLengthInMetersSum="21453.21" meanHaltingDuration="120.61" maxHaltingDuration="143.00" haltingDurationSum="3739.00" meanIntervalHaltingDuration="100.00" maxIntervalHaltingDuration="100.00" intervalHaltingDurationSum="3100.00" startedHalts="1.00" meanVehicleNumber="31.00" maxVehicleNumber="31" />
   <interval begin="23600.00" end="23700.00" id="e2_L197#1_1_1" sampledSeconds="3100.00" nVehEntered="0" nVehLeft="0" nVehSeen="31" meanSpeed="0.00" meanTimeLoss="100.00" meanOccupancy="65.48" maxOccupancy="65.48" meanMaxJamLengthInVehicles="31.00" meanMaxJamLengthInMeters="214.35" maxJamLengthInVehicles="31" maxJamLengthInMeters="214.35" jamLengthInVehiclesSum="3100" jamLengthInMetersSum="21435.09" meanHaltingDuration="220.61" maxHaltingDuration="243.00" haltingDurationSum="6839.00" meanIntervalHaltingDuration="100.00" maxIntervalHaltingDuration="100.00" intervalHaltingDurationSum="3100.00" startedHalts="0.00" meanVehicleNumber="31.00" maxVehicleNumber="31" />
   <interval begin="23700.00" end="23800.00" id="e2_L197#1_1_1" sampledSeconds="3100.00" nVehEntered="0" nVehLeft="0" nVehSeen="31" meanSpeed="0.00" meanTimeLoss="100.00" meanOccupancy="65.48" maxOccupancy="65.48" meanMaxJamLengthInVehicles="31.00" meanMaxJamLengthInMeters="214.35" maxJamLengthInVehicles="31" maxJamLengthInMeters="214.35" jamLengthInVehiclesSum="3100" jamLengthInMetersSum="21435.09" meanHaltingDuration="320.61" maxHaltingDuration="343.00" haltingDurationSum="9939.00" meanIntervalHaltingDuration="100.00" maxIntervalHaltingDuration="100.00" intervalHaltingDurationSum="3100.00" startedHalts="0.00" meanVehicleNumber="31.00" maxVehicleNumber="31" />
   <interval begin="23800.00" end="23900.00" id="e2_L197#1_1_1" sampledSeconds="3065.77" nVehEntered="2" nVehLeft="1" nVehSeen="33" meanSpeed="0.08" meanTimeLoss="92.29" meanOccupancy="64.56" maxOccupancy="65.51" meanMaxJamLengthInVehicles="29.71" meanMaxJamLengthInMeters="208.15" maxJamLengthInVehicles="31" maxJamLengthInMeters="221.32" jamLengthInVehiclesSum="3047" jamLengthInMetersSum="21344.69" meanHaltingDuration="316.88" maxHaltingDuration="440.00" haltingDurationSum="12992.00" meanIntervalHaltingDuration="74.46" maxIntervalHaltingDuration="100.00" intervalHaltingDurationSum="3053.00" startedHalts="11.00" meanVehicleNumber="30.67" maxVehicleNumber="32" />
   <interval begin="23900.00" end="24000.00" id="e2_L197#1_1_1" sampledSeconds="3175.71" nVehEntered="0" nVehLeft="2" nVehSeen="32" meanSpeed="0.05" meanTimeLoss="98.87" meanOccupancy="65.14" maxOccupancy="65.82" meanMaxJamLengthInVehicles="30.63" meanMaxJamLengthInMeters="208.28" maxJamLengthInVehicles="32" maxJamLengthInMeters="219.72" jamLengthInVehiclesSum="3120" jamLengthInMetersSum="21218.52" meanHaltingDuration="277.40" maxHaltingDuration="524.00" haltingDurationSum="13038.00" meanIntervalHaltingDuration="66.59" maxIntervalHaltingDuration="100.00" intervalHaltingDurationSum="3130.00" startedHalts="16.00" meanVehicleNumber="31.76" maxVehicleNumber="32" />
   <interval begin="24000.00" end="24100.00" id="e2_L197#1_1_1" sampledSeconds="3068.27" nVehEntered="1" nVehLeft="0" nVehSeen="31" meanSpeed="0.09" meanTimeLoss="98.27" meanOccupancy="64.33" maxOccupancy="65.48" meanMaxJamLengthInVehicles="27.67" meanMaxJamLengthInMeters="192.42" maxJamLengthInVehicles="31" maxJamLengthInMeters="216.55" jamLengthInVehiclesSum="2999" jamLengthInMetersSum="20783.64" meanHaltingDuration="181.62" maxHaltingDuration="527.00" haltingDurationSum="11079.00" meanIntervalHaltingDuration="49.72" maxIntervalHaltingDuration="100.00" intervalHaltingDurationSum="3033.00" startedHalts="34.00" meanVehicleNumber="30.69" maxVehicleNumber="31" />
   <interval begin="24100.00" end="24200.00" id="e2_L197#1_1_1" sampledSeconds="3069.46" nVehEntered="1" nVehLeft="1" nVehSeen="32" meanSpeed="0.07" meanTimeLoss="95.36" meanOccupancy="64.58" maxOccupancy="65.48" meanMaxJamLengthInVehicles="30.23" meanMaxJamLengthInMeters="211.58" maxJamLengthInVehicles="31" maxJamLengthInMeters="218.33" jamLengthInVehiclesSum="3051" jamLengthInMetersSum="21325.64" meanHaltingDuration="142.90" maxHaltingDuration="205.00" haltingDurationSum="5716.00" meanIntervalHaltingDuration="75.53" maxIntervalHaltingDuration="100.00" intervalHaltingDurationSum="3021.00" startedHalts="10.00" meanVehicleNumber="30.70" maxVehicleNumber="31" />
   <interval begin="24200.00" end="24300.00" id="e2_L197#1_1_1" sampledSeconds="3100.00" nVehEntered="0" nVehLeft="0" nVehSeen="31" meanSpeed="0.00" meanTimeLoss="100.00" meanOccupancy="65.48" maxOccupancy="65.48" meanMaxJamLengthInVehicles="31.00" meanMaxJamLengthInMeters="214.35" maxJamLengthInVehicles="31" maxJamLengthInMeters="214.36" jamLengthInVehiclesSum="3100" jamLengthInMetersSum="21435.14" meanHaltingDuration="251.65" maxHaltingDuration="305.00" haltingDurationSum="7801.00" meanIntervalHaltingDuration="100.00" maxIntervalHaltingDuration="100.00" intervalHaltingDurationSum="3100.00" startedHalts="0.00" meanVehicleNumber="31.00" maxVehicleNumber="31" />
   <interval begin="24300.00" end="24400.00" id="e2_L197#1_1_1" sampledSeconds="3100.00" nVehEntered="0" nVehLeft="0" nVehSeen="31" meanSpeed="0.00" meanTimeLoss="100.00" meanOccupancy="65.48" maxOccupancy="65.48" meanMaxJamLengthInVehicles="31.00" meanMaxJamLengthInMeters="214.35" maxJamLengthInVehicles="31" maxJamLengthInMeters="214.35" jamLengthInVehiclesSum="3100" jamLengthInMetersSum="21435.10" meanHaltingDuration="351.64" maxHaltingDuration="405.00" haltingDurationSum="10901.00" meanIntervalHaltingDuration="100.00" maxIntervalHaltingDuration="100.00" intervalHaltingDurationSum="3100.00" startedHalts="0.00" meanVehicleNumber="31.00" maxVehicleNumber="31" />
   <interval begin="24400.00" end="24500.00" id="e2_L197#1_1_1" sampledSeconds="3100.00" nVehEntered="0" nVehLeft="0" nVehSeen="31" meanSpeed="0.00" meanTimeLoss="100.00" meanOccupancy="65.48" maxOccupancy="65.48" meanMaxJamLengthInVehicles="31.00" meanMaxJamLengthInMeters="214.35" maxJamLengthInVehicles="31" maxJamLengthInMeters="214.35" jamLengthInVehiclesSum="3100" jamLengthInMetersSum="21435.10" meanHaltingDuration="451.64" maxHaltingDuration="505.00" haltingDurationSum="14001.00" meanIntervalHaltingDuration="100.00" maxIntervalHaltingDuration="100.00" intervalHaltingDurationSum="3100.00" startedHalts="0.00" meanVehicleNumber="31.00" maxVehicleNumber="31" />
   <interval begin="24500.00" end="24600.00" id="e2_L197#1_1_1" sampledSeconds="3100.00" nVehEntered="0" nVehLeft="0" nVehSeen="31" meanSpeed="0.00" meanTimeLoss="100.00" meanOccupancy="65.48" maxOccupancy="65.48" meanMaxJamLengthInVehicles="31.00" meanMaxJamLengthInMeters="214.35" maxJamLengthInVehicles="31" maxJamLengthInMeters="214.35" jamLengthInVehiclesSum="3100" jamLengthInMetersSum="21435.10" meanHaltingDuration="551.64" maxHaltingDuration="605.00" haltingDurationSum="17101.00" meanIntervalHaltingDuration="100.00" maxIntervalHaltingDuration="100.00" intervalHaltingDurationSum="3100.00" startedHalts="0.00" meanVehicleNumber="31.00" maxVehicleNumber="31" />
   <interval begin="24600.00" end="24700.00" id="e2_L197#1_1_1" sampledSeconds="3100.00" nVehEntered="0" nVehLeft="0" nVehSeen="31" meanSpeed="0.00" meanTimeLoss="100.00" meanOccupancy="65.48" maxOccupancy="65.48" meanMaxJamLengthInVehicles="31.00" meanMaxJamLengthInMeters="214.35" maxJamLengthInVehicles="31" maxJamLengthInMeters="214.35" jamLengthInVehiclesSum="3100" jamLengthInMetersSum="21435.10" meanHaltingDuration="651.64" maxHaltingDuration="705.00" haltingDurationSum="20201.00" meanIntervalHaltingDuration="100.00" maxIntervalHaltingDuration="100.00" intervalHaltingDurationSum="3100.00" startedHalts="0.00" meanVehicleNumber="31.00" maxVehicleNumber="31" />
   <interval begin="24700.00" end="24800.00" id="e2_L197#1_1_1" sampledSeconds="3100.00" nVehEntered="0" nVehLeft="0" nVehSeen="31" meanSpeed="0.01" meanTimeLoss="99.95" meanOccupancy="65.48" maxOccupancy="65.48" meanMaxJamLengthInVehicles="31.00" meanMaxJamLengthInMeters="214.61" maxJamLengthInVehicles="31" maxJamLengthInMeters="215.25" jamLengthInVehiclesSum="3100" jamLengthInMetersSum="21461.09" meanHaltingDuration="751.64" maxHaltingDuration="805.00" haltingDurationSum="23301.00" meanIntervalHaltingDuration="100.00" maxIntervalHaltingDuration="100.00" intervalHaltingDurationSum="3100.00" startedHalts="0.00" meanVehicleNumber="31.00" maxVehicleNumber="31" />
   <interval begin="24800.00" end="24900.00" id="e2_L197#1_1_1" sampledSeconds="3187.09" nVehEntered="1" nVehLeft="0" nVehSeen="32" meanSpeed="0.00" meanTimeLoss="99.57" meanOccupancy="65.75" maxOccupancy="65.82" meanMaxJamLengthInVehicles="31.87" meanMaxJamLengthInMeters="217.15" maxJamLengthInVehicles="32" maxJamLengthInMeters="217.45" jamLengthInVehiclesSum="3187" jamLengthInMetersSum="21715.47" meanHaltingDuration="827.78" maxHaltingDuration="905.00" haltingDurationSum="26489.00" meanIntervalHaltingDuration="99.62" maxIntervalHaltingDuration="100.00" intervalHaltingDurationSum="3188.00" startedHalts="1.00" meanVehicleNumber="31.88" maxVehicleNumber="32" />
   <interval begin="24900.00" end="25000.00" id="e2_L197#1_1_1" sampledSeconds="3200.00" nVehEntered="0" nVehLeft="0" nVehSeen="32" meanSpeed="0.00" meanTimeLoss="100.00" meanOccupancy="65.82" maxOccupancy="65.82" meanMaxJamLengthInVehicles="32.00" meanMaxJamLengthInMeters="217.45" maxJamLengthInVehicles="32" maxJamLengthInMeters="217.45" jamLengthInVehiclesSum="3200" jamLengthInMetersSum="21744.86" meanHaltingDuration="927.78" maxHaltingDuration="1005.00" haltingDurationSum="29689.00" meanIntervalHaltingDuration="100.00" maxIntervalHaltingDuration="100.00" intervalHaltingDurationSum="3200.00" startedHalts="0.00" meanVehicleNumber="32.00" maxVehicleNumber="32" />
   <interval begin="25000.00" end="25100.00" id="e2_L197#1_1_1" sampledSeconds="3200.00" nVehEntered="0" nVehLeft="0" nVehSeen="32" meanSpeed="0.00" meanTimeLoss="100.00" meanOccupancy="65.82" maxOccupancy="65.82" meanMaxJamLengthInVehicles="32.00" meanMaxJamLengthInMeters="217.45" maxJamLengthInVehicles="32" maxJamLengthInMeters="217.45" jamLengthInVehiclesSum="3200" jamLengthInMetersSum="21744.86" meanHaltingDuration="1027.78" maxHaltingDuration="1105.00" haltingDurationSum="32889.00" meanIntervalHaltingDuration="100.00" maxIntervalHaltingDuration="100.00" intervalHaltingDurationSum="3200.00" startedHalts="0.00" meanVehicleNumber="32.00" maxVehicleNumber="32" />
   <interval begin="25100.00" end="25200.00" id="e2_L197#1_1_1" sampledSeconds="3200.00" nVehEntered="0" nVehLeft="0" nVehSeen="32" meanSpeed="0.00" meanTimeLoss="100.00" meanOccupancy="65.82" maxOccupancy="65.82" meanMaxJamLengthInVehicles="32.00" meanMaxJamLengthInMeters="217.45" maxJamLengthInVehicles="32" maxJamLengthInMeters="217.45" jamLengthInVehiclesSum="3200" jamLengthInMetersSum="21744.86" meanHaltingDuration="1127.78" maxHaltingDuration="1205.00" haltingDurationSum="36089.00" meanIntervalHaltingDuration="100.00" maxIntervalHaltingDuration="100.00" intervalHaltingDurationSum="3200.00" startedHalts="0.00" meanVehicleNumber="32.00" maxVehicleNumber="32" />
   <interval begin="25200.00" end="25300.00" id="e2_L197#1_1_1" sampledSeconds="3200.00" nVehEntered="0" nVehLeft="0" nVehSeen="32" meanSpeed="0.00" meanTimeLoss="100.00" meanOccupancy="65.82" maxOccupancy="65.82" meanMaxJamLengthInVehicles="32.00" meanMaxJamLengthInMeters="217.45" maxJamLengthInVehicles="32" maxJamLengthInMeters="217.45" jamLengthInVehiclesSum="3200" jamLengthInMetersSum="21744.86" meanHaltingDuration="1227.78" maxHaltingDuration="1305.00" haltingDurationSum="39289.00" meanIntervalHaltingDuration="100.00" maxIntervalHaltingDuration="100.00" intervalHaltingDurationSum="3200.00" startedHalts="0.00" meanVehicleNumber="32.00" maxVehicleNumber="32" />
   <interval begin="25300.00" end="25400.00" id="e2_L197#1_1_1" sampledSeconds="3200.00" nVehEntered="0" nVehLeft="0" nVehSeen="32" meanSpeed="0.00" meanTimeLoss="100.00" meanOccupancy="65.82" maxOccupancy="65.82" meanMaxJamLengthInVehicles="32.00" meanMaxJamLengthInMeters="217.45" maxJamLengthInVehicles="32" maxJamLengthInMeters="217.45" jamLengthInVehiclesSum="3200" jamLengthInMetersSum="21744.86" meanHaltingDuration="1327.78" maxHaltingDuration="1405.00" haltingDurationSum="42489.00" meanIntervalHaltingDuration="100.00" maxIntervalHaltingDuration="100.00" intervalHaltingDurationSum="3200.00" startedHalts="0.00" meanVehicleNumber="32.00" maxVehicleNumber="32" />
   <interval begin="25400.00" end="25500.00" id="e2_L197#1_1_1" sampledSeconds="3070.53" nVehEntered="1" nVehLeft="6" nVehSeen="33" meanSpeed="0.21" meanTimeLoss="91.51" meanOccupancy="62.97" maxOccupancy="65.82" meanMaxJamLengthInVehicles="25.09" meanMaxJamLengthInMeters="173.56" maxJamLengthInVehicles="32" maxJamLengthInMeters="223.80" jamLengthInVehiclesSum="2930" jamLengthInMetersSum="20305.11" meanHaltingDuration="558.90" maxHaltingDuration="1472.00" haltingDurationSum="44153.00" meanIntervalHaltingDuration="37.04" maxIntervalHaltingDuration="100.00" intervalHaltingDurationSum="2926.00" startedHalts="49.00" meanVehicleNumber="30.74" maxVehicleNumber="32" />
   <interval begin="25500.00" end="25600.00" id="e2_L197#1_1_1" sampledSeconds="2707.99" nVehEntered="10" nVehLeft="8" nVehSeen="37" meanSpeed="0.60" meanTimeLoss="69.70" meanOccupancy="56.49" maxOccupancy="62.34" meanMaxJamLengthInVehicles="19.75" meanMaxJamLengthInMeters="142.94" maxJamLengthInVehicles="30" maxJamLengthInMeters="221.26" jamLengthInVehiclesSum="2192" jamLengthInMetersSum="15672.40" meanHaltingDuration="52.19" maxHaltingDuration="1472.00" haltingDurationSum="6002.00" meanIntervalHaltingDuration="19.62" maxIntervalHaltingDuration="82.00" intervalHaltingDurationSum="2256.00" startedHalts="98.00" meanVehicleNumber="27.11" maxVehicleNumber="30" />
   <interval begin="25600.00" end="25700.00" id="e2_L197#1_1_1" sampledSeconds="2269.21" nVehEntered="18" nVehLeft="21" nVehSeen="47" meanSpeed="1.39" meanTimeLoss="42.90" meanOccupancy="47.31" maxOccupancy="59.74" meanMaxJamLengthInVehicles="11.08" meanMaxJamLengthInMeters="83.38" maxJamLengthInVehicles="27" maxJamLengthInMeters="201.55" jamLengthInVehiclesSum="1140" jamLengthInMetersSum="8531.69" meanHaltingDuration="20.65" maxHaltingDuration="84.00" haltingDurationSum="2788.00" meanIntervalHaltingDuration="9.10" maxIntervalHaltingDuration="44.00" intervalHaltingDurationSum="1229.00" startedHalts="110.00" meanVehicleNumber="22.83" maxVehicleNumber="29" />
   <interval begin="25700.00" end="25800.00" id="e2_L197#1_1_1" sampledSeconds="2890.55" nVehEntered="3" nVehLeft="0" nVehSeen="29" meanSpeed="0.02" meanTimeLoss="99.51" meanOccupancy="61.06" maxOccupancy="61.26" meanMaxJamLengthInVehicles="28.68" meanMaxJamLengthInMeters="212.18" maxJamLengthInVehicles="29" maxJamLengthInMeters="216.07" jamLengthInVehiclesSum="2868" jamLengthInMetersSum="21218.26" meanHaltingDuration="118.55" maxHaltingDuration="144.00" haltingDurationSum="3438.00" meanIntervalHaltingDuration="99.10" maxIntervalHaltingDuration="100.00" intervalHaltingDurationSum="2874.00" startedHalts="6.00" meanVehicleNumber="28.92" maxVehicleNumber="29" />