<?xml version="1.0" encoding="UTF-8"?>

<!-- generated on Sun Feb 17 15:57:00 2019 by 
<configuration xmlns:xsi="http://www.w3.org/2001/XMLSchema-instance" xsi:noNamespaceSchemaLocation="http://sumo.dlr.de/xsd/Configuration.xsd">

    <input>
        <net-file value="/home/sda/Documents/sumo-sathorn-ray/models/sathorn-morning/sathorn_w_fixed_20160404.net.xml"/>
        <route-files value="/home/sda/Documents/sumo-sathorn-ray/models/sathorn-morning/Great-route/sathorn_w_20160422edit2.rou.xml"/>
        <additional-files value="/home/sda/Documents/sumo-sathorn-ray/models/sathorn-morning/sathon_wide_tls_20160418_edited.add.xml,/home/sda/Documents/sumo-sathorn-ray/detectors/sathorn_w_detectors.add.xml"/>
    </input>

    <time>
        <begin value="21600"/>
        <end value="32400"/>
        <step-length value="1"/>
    </time>

    <processing>
        <no-internal-links value="true"/>
        <ignore-junction-blocker value="-1"/>
        <time-to-teleport value="-1"/>
        <eager-insert value="true"/>
        <time-to-impatience value="300"/>
    </processing>

    <report>
        <no-warnings value="true"/>
    </report>

    <random_number>
        <random value="false"/>
        <seed value="20"/>
    </random_number>

    <gui_only>
        <gui-settings-file value="/home/sda/Documents/sumo-sathorn-ray/gui-settings/gui-settings-file-surasak.xml"/>
        <quit-on-end value="true"/>
        <start value="true"/>
        <tracker-interval value="1"/>
    </gui_only>

</configuration>
-->

<detector xmlns:xsi="http://www.w3.org/2001/XMLSchema-instance" xsi:noNamespaceSchemaLocation="http://sumo.dlr.de/xsd/det_e2_file.xsd">
   <interval begin="21600.00" end="21700.00" id="e2_L237_2_3" sampledSeconds="0.00" nVehEntered="0" nVehLeft="0" nVehSeen="0" meanSpeed="-1.00" meanTimeLoss="-1.00" meanOccupancy="0.00" maxOccupancy="0.00" meanMaxJamLengthInVehicles="0.00" meanMaxJamLengthInMeters="0.00" maxJamLengthInVehicles="0" maxJamLengthInMeters="0.00" jamLengthInVehiclesSum="0" jamLengthInMetersSum="0.00" meanHaltingDuration="0.00" maxHaltingDuration="0.00" haltingDurationSum="0.00" meanIntervalHaltingDuration="0.00" maxIntervalHaltingDuration="0.00" intervalHaltingDurationSum="0.00" startedHalts="0.00" meanVehicleNumber="0.00" maxVehicleNumber="0" />
   <interval begin="21700.00" end="21800.00" id="e2_L237_2_3" sampledSeconds="0.00" nVehEntered="0" nVehLeft="0" nVehSeen="0" meanSpeed="-1.00" meanTimeLoss="-1.00" meanOccupancy="0.00" maxOccupancy="0.00" meanMaxJamLengthInVehicles="0.00" meanMaxJamLengthInMeters="0.00" maxJamLengthInVehicles="0" maxJamLengthInMeters="0.00" jamLengthInVehiclesSum="0" jamLengthInMetersSum="0.00" meanHaltingDuration="0.00" maxHaltingDuration="0.00" haltingDurationSum="0.00" meanIntervalHaltingDuration="0.00" maxIntervalHaltingDuration="0.00" intervalHaltingDurationSum="0.00" startedHalts="0.00" meanVehicleNumber="0.00" maxVehicleNumber="0" />
   <interval begin="21800.00" end="21900.00" id="e2_L237_2_3" sampledSeconds="0.00" nVehEntered="0" nVehLeft="0" nVehSeen="0" meanSpeed="-1.00" meanTimeLoss="-1.00" meanOccupancy="0.00" maxOccupancy="0.00" meanMaxJamLengthInVehicles="0.00" meanMaxJamLengthInMeters="0.00" maxJamLengthInVehicles="0" maxJamLengthInMeters="0.00" jamLengthInVehiclesSum="0" jamLengthInMetersSum="0.00" meanHaltingDuration="0.00" maxHaltingDuration="0.00" haltingDurationSum="0.00" meanIntervalHaltingDuration="0.00" maxIntervalHaltingDuration="0.00" intervalHaltingDurationSum="0.00" startedHalts="0.00" meanVehicleNumber="0.00" maxVehicleNumber="0" />
   <interval begin="21900.00" end="22000.00" id="e2_L237_2_3" sampledSeconds="0.00" nVehEntered="0" nVehLeft="0" nVehSeen="0" meanSpeed="-1.00" meanTimeLoss="-1.00" meanOccupancy="0.00" maxOccupancy="0.00" meanMaxJamLengthInVehicles="0.00" meanMaxJamLengthInMeters="0.00" maxJamLengthInVehicles="0" maxJamLengthInMeters="0.00" jamLengthInVehiclesSum="0" jamLengthInMetersSum="0.00" meanHaltingDuration="0.00" maxHaltingDuration="0.00" haltingDurationSum="0.00" meanIntervalHaltingDuration="0.00" maxIntervalHaltingDuration="0.00" intervalHaltingDurationSum="0.00" startedHalts="0.00" meanVehicleNumber="0.00" maxVehicleNumber="0" />
   <interval begin="22000.00" end="22100.00" id="e2_L237_2_3" sampledSeconds="1.00" nVehEntered="1" nVehLeft="1" nVehSeen="1" meanSpeed="9.52" meanTimeLoss="0.24" meanOccupancy="0.00" maxOccupancy="0.12" meanMaxJamLengthInVehicles="0.00" meanMaxJamLengthInMeters="0.00" maxJamLengthInVehicles="0" maxJamLengthInMeters="0.00" jamLengthInVehiclesSum="0" jamLengthInMetersSum="0.00" meanHaltingDuration="0.00" maxHaltingDuration="0.00" haltingDurationSum="0.00" meanIntervalHaltingDuration="0.00" maxIntervalHaltingDuration="0.00" intervalHaltingDurationSum="0.00" startedHalts="0.00" meanVehicleNumber="0.02" maxVehicleNumber="1" />
   <interval begin="22100.00" end="22200.00" id="e2_L237_2_3" sampledSeconds="0.00" nVehEntered="0" nVehLeft="0" nVehSeen="0" meanSpeed="-1.00" meanTimeLoss="-1.00" meanOccupancy="0.00" maxOccupancy="0.00" meanMaxJamLengthInVehicles="0.00" meanMaxJamLengthInMeters="0.00" maxJamLengthInVehicles="0" maxJamLengthInMeters="0.00" jamLengthInVehiclesSum="0" jamLengthInMetersSum="0.00" meanHaltingDuration="0.00" maxHaltingDuration="0.00" haltingDurationSum="0.00" meanIntervalHaltingDuration="0.00" maxIntervalHaltingDuration="0.00" intervalHaltingDurationSum="0.00" startedHalts="0.00" meanVehicleNumber="0.00" maxVehicleNumber="0" />
   <interval begin="22200.00" end="22300.00" id="e2_L237_2_3" sampledSeconds="1.67" nVehEntered="1" nVehLeft="1" nVehSeen="1" meanSpeed="11.56" meanTimeLoss="0.13" meanOccupancy="0.15" maxOccupancy="14.62" meanMaxJamLengthInVehicles="0.00" meanMaxJamLengthInMeters="0.00" maxJamLengthInVehicles="0" maxJamLengthInMeters="0.00" jamLengthInVehiclesSum="0" jamLengthInMetersSum="0.00" meanHaltingDuration="0.00" maxHaltingDuration="0.00" haltingDurationSum="0.00" meanIntervalHaltingDuration="0.00" maxIntervalHaltingDuration="0.00" intervalHaltingDurationSum="0.00" startedHalts="0.00" meanVehicleNumber="0.02" maxVehicleNumber="1" />
   <interval begin="22300.00" end="22400.00" id="e2_L237_2_3" sampledSeconds="1.01" nVehEntered="1" nVehLeft="1" nVehSeen="1" meanSpeed="10.01" meanTimeLoss="0.20" meanOccupancy="0.00" maxOccupancy="0.25" meanMaxJamLengthInVehicles="0.00" meanMaxJamLengthInMeters="0.00" maxJamLengthInVehicles="0" maxJamLengthInMeters="0.00" jamLengthInVehiclesSum="0" jamLengthInMetersSum="0.00" meanHaltingDuration="0.00" maxHaltingDuration="0.00" haltingDurationSum="0.00" meanIntervalHaltingDuration="0.00" maxIntervalHaltingDuration="0.00" intervalHaltingDurationSum="0.00" startedHalts="0.00" meanVehicleNumber="0.02" maxVehicleNumber="1" />
   <interval begin="22400.00" end="22500.00" id="e2_L237_2_3" sampledSeconds="0.00" nVehEntered="0" nVehLeft="0" nVehSeen="0" meanSpeed="-1.00" meanTimeLoss="-1.00" meanOccupancy="0.00" maxOccupancy="0.00" meanMaxJamLengthInVehicles="0.00" meanMaxJamLengthInMeters="0.00" maxJamLengthInVehicles="0" maxJamLengthInMeters="0.00" jamLengthInVehiclesSum="0" jamLengthInMetersSum="0.00" meanHaltingDuration="0.00" maxHaltingDuration="0.00" haltingDurationSum="0.00" meanIntervalHaltingDuration="0.00" maxIntervalHaltingDuration="0.00" intervalHaltingDurationSum="0.00" startedHalts="0.00" meanVehicleNumber="0.00" maxVehicleNumber="0" />
   <interval begin="22500.00" end="22600.00" id="e2_L237_2_3" sampledSeconds="0.00" nVehEntered="0" nVehLeft="0" nVehSeen="0" meanSpeed="-1.00" meanTimeLoss="-1.00" meanOccupancy="0.00" maxOccupancy="0.00" meanMaxJamLengthInVehicles="0.00" meanMaxJamLengthInMeters="0.00" maxJamLengthInVehicles="0" maxJamLengthInMeters="0.00" jamLengthInVehiclesSum="0" jamLengthInMetersSum="0.00" meanHaltingDuration="0.00" maxHaltingDuration="0.00" haltingDurationSum="0.00" meanIntervalHaltingDuration="0.00" maxIntervalHaltingDuration="0.00" intervalHaltingDurationSum="0.00" startedHalts="0.00" meanVehicleNumber="0.00" maxVehicleNumber="0" />
   <interval begin="22600.00" end="22700.00" id="e2_L237_2_3" sampledSeconds="1.46" nVehEntered="1" nVehLeft="1" nVehSeen="1" meanSpeed="11.73" meanTimeLoss="0.09" meanOccupancy="0.15" maxOccupancy="14.62" meanMaxJamLengthInVehicles="0.00" meanMaxJamLengthInMeters="0.00" maxJamLengthInVehicles="0" maxJamLengthInMeters="0.00" jamLengthInVehiclesSum="0" jamLengthInMetersSum="0.00" meanHaltingDuration="0.00" maxHaltingDuration="0.00" haltingDurationSum="0.00" meanIntervalHaltingDuration="0.00" maxIntervalHaltingDuration="0.00" intervalHaltingDurationSum="0.00" startedHalts="0.00" meanVehicleNumber="0.02" maxVehicleNumber="1" />
   <interval begin="22700.00" end="22800.00" id="e2_L237_2_3" sampledSeconds="1.66" nVehEntered="1" nVehLeft="1" nVehSeen="1" meanSpeed="11.58" meanTimeLoss="0.12" meanOccupancy="0.15" maxOccupancy="14.62" meanMaxJamLengthInVehicles="0.00" meanMaxJamLengthInMeters="0.00" maxJamLengthInVehicles="0" maxJamLengthInMeters="0.00" jamLengthInVehiclesSum="0" jamLengthInMetersSum="0.00" meanHaltingDuration="0.00" maxHaltingDuration="0.00" haltingDurationSum="0.00" meanIntervalHaltingDuration="0.00" maxIntervalHaltingDuration="0.00" intervalHaltingDurationSum="0.00" startedHalts="0.00" meanVehicleNumber="0.02" maxVehicleNumber="1" />
   <interval begin="22800.00" end="22900.00" id="e2_L237_2_3" sampledSeconds="1.88" nVehEntered="1" nVehLeft="1" nVehSeen="1" meanSpeed="6.64" meanTimeLoss="0.88" meanOccupancy="0.15" maxOccupancy="14.62" meanMaxJamLengthInVehicles="0.00" meanMaxJamLengthInMeters="0.00" maxJamLengthInVehicles="0" maxJamLengthInMeters="0.00" jamLengthInVehiclesSum="0" jamLengthInMetersSum="0.00" meanHaltingDuration="0.00" maxHaltingDuration="0.00" haltingDurationSum="0.00" meanIntervalHaltingDuration="0.00" maxIntervalHaltingDuration="0.00" intervalHaltingDurationSum="0.00" startedHalts="0.00" meanVehicleNumber="0.02" maxVehicleNumber="1" />
   <interval begin="22900.00" end="23000.00" id="e2_L237_2_3" sampledSeconds="28.00" nVehEntered="1" nVehLeft="0" nVehSeen="1" meanSpeed="0.48" meanTimeLoss="26.92" meanOccupancy="1.07" maxOccupancy="14.62" meanMaxJamLengthInVehicles="0.24" meanMaxJamLengthInMeters="0.23" maxJamLengthInVehicles="1" maxJamLengthInMeters="0.97" jamLengthInVehiclesSum="24" jamLengthInMetersSum="22.63" meanHaltingDuration="25.00" maxHaltingDuration="25.00" haltingDurationSum="25.00" meanIntervalHaltingDuration="25.00" maxIntervalHaltingDuration="25.00" intervalHaltingDurationSum="25.00" startedHalts="1.00" meanVehicleNumber="0.28" maxVehicleNumber="1" />
   <interval begin="23000.00" end="23100.00" id="e2_L237_2_3" sampledSeconds="100.00" nVehEntered="0" nVehLeft="0" nVehSeen="1" meanSpeed="0.00" meanTimeLoss="100.00" meanOccupancy="2.98" maxOccupancy="2.98" meanMaxJamLengthInVehicles="1.00" meanMaxJamLengthInMeters="0.94" maxJamLengthInVehicles="1" maxJamLengthInMeters="0.94" jamLengthInVehiclesSum="100" jamLengthInMetersSum="94.15" meanHaltingDuration="125.00" maxHaltingDuration="125.00" haltingDurationSum="125.00" meanIntervalHaltingDuration="100.00" maxIntervalHaltingDuration="100.00" intervalHaltingDurationSum="100.00" startedHalts="0.00" meanVehicleNumber="1.00" maxVehicleNumber="1" />
   <interval begin="23100.00" end="23200.00" id="e2_L237_2_3" sampledSeconds="100.00" nVehEntered="0" nVehLeft="0" nVehSeen="1" meanSpeed="0.00" meanTimeLoss="100.00" meanOccupancy="2.98" maxOccupancy="2.98" meanMaxJamLengthInVehicles="1.00" meanMaxJamLengthInMeters="0.94" maxJamLengthInVehicles="1" maxJamLengthInMeters="0.94" jamLengthInVehiclesSum="100" jamLengthInMetersSum="94.15" meanHaltingDuration="225.00" maxHaltingDuration="225.00" haltingDurationSum="225.00" meanIntervalHaltingDuration="100.00" maxIntervalHaltingDuration="100.00" intervalHaltingDurationSum="100.00" startedHalts="0.00" meanVehicleNumber="1.00" maxVehicleNumber="1" />
   <interval begin="23200.00" end="23300.00" id="e2_L237_2_3" sampledSeconds="100.00" nVehEntered="0" nVehLeft="0" nVehSeen="1" meanSpeed="0.00" meanTimeLoss="100.00" meanOccupancy="2.98" maxOccupancy="2.98" meanMaxJamLengthInVehicles="1.00" meanMaxJamLengthInMeters="0.94" maxJamLengthInVehicles="1" maxJamLengthInMeters="0.94" jamLengthInVehiclesSum="100" jamLengthInMetersSum="94.15" meanHaltingDuration="325.00" maxHaltingDuration="325.00" haltingDurationSum="325.00" meanIntervalHaltingDuration="100.00" maxIntervalHaltingDuration="100.00" intervalHaltingDurationSum="100.00" startedHalts="0.00" meanVehicleNumber="1.00" maxVehicleNumber="1" />
   <interval begin="23300.00" end="23400.00" id="e2_L237_2_3" sampledSeconds="100.00" nVehEntered="0" nVehLeft="0" nVehSeen="1" meanSpeed="0.00" meanTimeLoss="100.00" meanOccupancy="2.98" maxOccupancy="2.98" meanMaxJamLengthInVehicles="1.00" meanMaxJamLengthInMeters="0.94" maxJamLengthInVehicles="1" maxJamLengthInMeters="0.94" jamLengthInVehiclesSum="100" jamLengthInMetersSum="94.15" meanHaltingDuration="425.00" maxHaltingDuration="425.00" haltingDurationSum="425.00" meanIntervalHaltingDuration="100.00" maxIntervalHaltingDuration="100.00" intervalHaltingDurationSum="100.00" startedHalts="0.00" meanVehicleNumber="1.00" maxVehicleNumber="1" />
   <interval begin="23400.00" end="23500.00" id="e2_L237_2_3" sampledSeconds="100.00" nVehEntered="0" nVehLeft="0" nVehSeen="1" meanSpeed="0.00" meanTimeLoss="100.00" meanOccupancy="2.98" maxOccupancy="2.98" meanMaxJamLengthInVehicles="1.00" meanMaxJamLengthInMeters="0.94" maxJamLengthInVehicles="1" maxJamLengthInMeters="0.94" jamLengthInVehiclesSum="100" jamLengthInMetersSum="94.15" meanHaltingDuration="525.00" maxHaltingDuration="525.00" haltingDurationSum="525.00" meanIntervalHaltingDuration="100.00" maxIntervalHaltingDuration="100.00" intervalHaltingDurationSum="100.00" startedHalts="0.00" meanVehicleNumber="1.00" maxVehicleNumber="1" />
   <interval begin="23500.00" end="23600.00" id="e2_L237_2_3" sampledSeconds="78.18" nVehEntered="0" nVehLeft="1" nVehSeen="1" meanSpeed="0.01" meanTimeLoss="78.11" meanOccupancy="2.25" maxOccupancy="2.98" meanMaxJamLengthInVehicles="0.79" meanMaxJamLengthInMeters="0.71" maxJamLengthInVehicles="1" maxJamLengthInMeters="0.94" jamLengthInVehiclesSum="79" jamLengthInMetersSum="70.97" meanHaltingDuration="0.00" maxHaltingDuration="0.00" haltingDurationSum="0.00" meanIntervalHaltingDuration="0.00" maxIntervalHaltingDuration="0.00" intervalHaltingDurationSum="0.00" startedHalts="0.00" meanVehicleNumber="0.79" maxVehicleNumber="1" />
   <interval begin="23600.00" end="23700.00" id="e2_L237_2_3" sampledSeconds="12.00" nVehEntered="1" nVehLeft="0" nVehSeen="1" meanSpeed="0.01" meanTimeLoss="11.99" meanOccupancy="1.75" maxOccupancy="14.62" meanMaxJamLengthInVehicles="0.11" meanMaxJamLengthInMeters="0.51" maxJamLengthInVehicles="1" maxJamLengthInMeters="4.62" jamLengthInVehiclesSum="11" jamLengthInMetersSum="50.82" meanHaltingDuration="12.00" maxHaltingDuration="12.00" haltingDurationSum="12.00" meanIntervalHaltingDuration="12.00" maxIntervalHaltingDuration="12.00" intervalHaltingDurationSum="12.00" startedHalts="1.00" meanVehicleNumber="0.12" maxVehicleNumber="1" />
   <interval begin="23700.00" end="23800.00" id="e2_L237_2_3" sampledSeconds="100.00" nVehEntered="0" nVehLeft="0" nVehSeen="1" meanSpeed="0.00" meanTimeLoss="100.00" meanOccupancy="14.62" maxOccupancy="14.62" meanMaxJamLengthInVehicles="1.00" meanMaxJamLengthInMeters="4.62" maxJamLengthInVehicles="1" maxJamLengthInMeters="4.62" jamLengthInVehiclesSum="100" jamLengthInMetersSum="462.00" meanHaltingDuration="112.00" maxHaltingDuration="112.00" haltingDurationSum="112.00" meanIntervalHaltingDuration="100.00" maxIntervalHaltingDuration="100.00" intervalHaltingDurationSum="100.00" startedHalts="0.00" meanVehicleNumber="1.00" maxVehicleNumber="1" />
   <interval begin="23800.00" end="23900.00" id="e2_L237_2_3" sampledSeconds="100.00" nVehEntered="0" nVehLeft="0" nVehSeen="1" meanSpeed="0.00" meanTimeLoss="100.00" meanOccupancy="14.62" maxOccupancy="14.62" meanMaxJamLengthInVehicles="1.00" meanMaxJamLengthInMeters="4.62" maxJamLengthInVehicles="1" maxJamLengthInMeters="4.62" jamLengthInVehiclesSum="100" jamLengthInMetersSum="462.00" meanHaltingDuration="212.00" maxHaltingDuration="212.00" haltingDurationSum="212.00" meanIntervalHaltingDuration="100.00" maxIntervalHaltingDuration="100.00" intervalHaltingDurationSum="100.00" startedHalts="0.00" meanVehicleNumber="1.00" maxVehicleNumber="1" />
   <interval begin="23900.00" end="24000.00" id="e2_L237_2_3" sampledSeconds="100.00" nVehEntered="0" nVehLeft="0" nVehSeen="1" meanSpeed="0.00" meanTimeLoss="100.00" meanOccupancy="14.62" maxOccupancy="14.62" meanMaxJamLengthInVehicles="1.00" meanMaxJamLengthInMeters="4.62" maxJamLengthInVehicles="1" maxJamLengthInMeters="4.62" jamLengthInVehiclesSum="100" jamLengthInMetersSum="462.00" meanHaltingDuration="312.00" maxHaltingDuration="312.00" haltingDurationSum="312.00" meanIntervalHaltingDuration="100.00" maxIntervalHaltingDuration="100.00" intervalHaltingDurationSum="100.00" startedHalts="0.00" meanVehicleNumber="1.00" maxVehicleNumber="1" />
   <interval begin="24000.00" end="24100.00" id="e2_L237_2_3" sampledSeconds="100.00" nVehEntered="0" nVehLeft="0" nVehSeen="1" meanSpeed="0.00" meanTimeLoss="100.00" meanOccupancy="14.62" maxOccupancy="14.62" meanMaxJamLengthInVehicles="1.00" meanMaxJamLengthInMeters="4.62" maxJamLengthInVehicles="1" maxJamLengthInMeters="4.62" jamLengthInVehiclesSum="100" jamLengthInMetersSum="462.00" meanHaltingDuration="412.00" maxHaltingDuration="412.00" haltingDurationSum="412.00" meanIntervalHaltingDuration="100.00" maxIntervalHaltingDuration="100.00" intervalHaltingDurationSum="100.00" startedHalts="0.00" meanVehicleNumber="1.00" maxVehicleNumber="1" />
   <interval begin="24100.00" end="24200.00" id="e2_L237_2_3" sampledSeconds="100.00" nVehEntered="0" nVehLeft="0" nVehSeen="1" meanSpeed="0.00" meanTimeLoss="100.00" meanOccupancy="14.62" maxOccupancy="14.62" meanMaxJamLengthInVehicles="1.00" meanMaxJamLengthInMeters="4.62" maxJamLengthInVehicles="1" maxJamLengthInMeters="4.62" jamLengthInVehiclesSum="100" jamLengthInMetersSum="462.00" meanHaltingDuration="512.00" maxHaltingDuration="512.00" haltingDurationSum="512.00" meanIntervalHaltingDuration="100.00" maxIntervalHaltingDuration="100.00" intervalHaltingDurationSum="100.00" startedHalts="0.00" meanVehicleNumber="1.00" maxVehicleNumber="1" />
   <interval begin="24200.00" end="24300.00" id="e2_L237_2_3" sampledSeconds="100.00" nVehEntered="0" nVehLeft="0" nVehSeen="1" meanSpeed="0.00" meanTimeLoss="100.00" meanOccupancy="14.62" maxOccupancy="14.62" meanMaxJamLengthInVehicles="1.00" meanMaxJamLengthInMeters="4.62" maxJamLengthInVehicles="1" maxJamLengthInMeters="4.62" jamLengthInVehiclesSum="100" jamLengthInMetersSum="462.00" meanHaltingDuration="612.00" maxHaltingDuration="612.00" haltingDurationSum="612.00" meanIntervalHaltingDuration="100.00" maxIntervalHaltingDuration="100.00" intervalHaltingDurationSum="100.00" startedHalts="0.00" meanVehicleNumber="1.00" maxVehicleNumber="1" />
   <interval begin="24300.00" end="24400.00" id="e2_L237_2_3" sampledSeconds="100.00" nVehEntered="0" nVehLeft="0" nVehSeen="1" meanSpeed="0.00" meanTimeLoss="100.00" meanOccupancy="14.62" maxOccupancy="14.62" meanMaxJamLengthInVehicles="1.00" meanMaxJamLengthInMeters="4.62" maxJamLengthInVehicles="1" maxJamLengthInMeters="4.62" jamLengthInVehiclesSum="100" jamLengthInMetersSum="462.00" meanHaltingDuration="712.00" maxHaltingDuration="712.00" haltingDurationSum="712.00" meanIntervalHaltingDuration="100.00" maxIntervalHaltingDuration="100.00" intervalHaltingDurationSum="100.00" startedHalts="0.00" meanVehicleNumber="1.00" maxVehicleNumber="1" />
   <interval begin="24400.00" end="24500.00" id="e2_L237_2_3" sampledSeconds="100.00" nVehEntered="0" nVehLeft="0" nVehSeen="1" meanSpeed="0.00" meanTimeLoss="100.00" meanOccupancy="14.62" maxOccupancy="14.62" meanMaxJamLengthInVehicles="1.00" meanMaxJamLengthInMeters="4.62" maxJamLengthInVehicles="1" maxJamLengthInMeters="4.62" jamLengthInVehiclesSum="100" jamLengthInMetersSum="462.00" meanHaltingDuration="812.00" maxHaltingDuration="812.00" haltingDurationSum="812.00" meanIntervalHaltingDuration="100.00" maxIntervalHaltingDuration="100.00" intervalHaltingDurationSum="100.00" startedHalts="0.00" meanVehicleNumber="1.00" maxVehicleNumber="1" />
   <interval begin="24500.00" end="24600.00" id="e2_L237_2_3" sampledSeconds="100.00" nVehEntered="0" nVehLeft="0" nVehSeen="1" meanSpeed="0.00" meanTimeLoss="100.00" meanOccupancy="14.62" maxOccupancy="14.62" meanMaxJamLengthInVehicles="1.00" meanMaxJamLengthInMeters="4.62" maxJamLengthInVehicles="1" maxJamLengthInMeters="4.62" jamLengthInVehiclesSum="100" jamLengthInMetersSum="462.00" meanHaltingDuration="912.00" maxHaltingDuration="912.00" haltingDurationSum="912.00" meanIntervalHaltingDuration="100.00" maxIntervalHaltingDuration="100.00" intervalHaltingDurationSum="100.00" startedHalts="0.00" meanVehicleNumber="1.00" maxVehicleNumber="1" />
   <interval begin="24600.00" end="24700.00" id="e2_L237_2_3" sampledSeconds="100.00" nVehEntered="0" nVehLeft="0" nVehSeen="1" meanSpeed="0.00" meanTimeLoss="100.00" meanOccupancy="14.62" maxOccupancy="14.62" meanMaxJamLengthInVehicles="1.00" meanMaxJamLengthInMeters="4.62" maxJamLengthInVehicles="1" maxJamLengthInMeters="4.62" jamLengthInVehiclesSum="100" jamLengthInMetersSum="462.00" meanHaltingDuration="1012.00" maxHaltingDuration="1012.00" haltingDurationSum="1012.00" meanIntervalHaltingDuration="100.00" maxIntervalHaltingDuration="100.00" intervalHaltingDurationSum="100.00" startedHalts="0.00" meanVehicleNumber="1.00" maxVehicleNumber="1" />
   <interval begin="24700.00" end="24800.00" id="e2_L237_2_3" sampledSeconds="100.00" nVehEntered="0" nVehLeft="0" nVehSeen="1" meanSpeed="0.00" meanTimeLoss="100.00" meanOccupancy="14.62" maxOccupancy="14.62" meanMaxJamLengthInVehicles="1.00" meanMaxJamLengthInMeters="4.62" maxJamLengthInVehicles="1" maxJamLengthInMeters="4.62" jamLengthInVehiclesSum="100" jamLengthInMetersSum="462.00" meanHaltingDuration="1112.00" maxHaltingDuration="1112.00" haltingDurationSum="1112.00" meanIntervalHaltingDuration="100.00" maxIntervalHaltingDuration="100.00" intervalHaltingDurationSum="100.00" startedHalts="0.00" meanVehicleNumber="1.00" maxVehicleNumber="1" />
   <interval begin="24800.00" end="24900.00" id="e2_L237_2_3" sampledSeconds="100.00" nVehEntered="0" nVehLeft="0" nVehSeen="1" meanSpeed="0.00" meanTimeLoss="100.00" meanOccupancy="14.62" maxOccupancy="14.62" meanMaxJamLengthInVehicles="1.00" meanMaxJamLengthInMeters="4.62" maxJamLengthInVehicles="1" maxJamLengthInMeters="4.62" jamLengthInVehiclesSum="100" jamLengthInMetersSum="462.00" meanHaltingDuration="1212.00" maxHaltingDuration="1212.00" haltingDurationSum="1212.00" meanIntervalHaltingDuration="100.00" maxIntervalHaltingDuration="100.00" intervalHaltingDurationSum="100.00" startedHalts="0.00" meanVehicleNumber="1.00" maxVehicleNumber="1" />
   <interval begin="24900.00" end="25000.00" id="e2_L237_2_3" sampledSeconds="100.00" nVehEntered="0" nVehLeft="0" nVehSeen="1" meanSpeed="0.00" meanTimeLoss="100.00" meanOccupancy="14.62" maxOccupancy="14.62" meanMaxJamLengthInVehicles="1.00" meanMaxJamLengthInMeters="4.62" maxJamLengthInVehicles="1" maxJamLengthInMeters="4.62" jamLengthInVehiclesSum="100" jamLengthInMetersSum="462.00" meanHaltingDuration="1312.00" maxHaltingDuration="1312.00" haltingDurationSum="1312.00" meanIntervalHaltingDuration="100.00" maxIntervalHaltingDuration="100.00" intervalHaltingDurationSum="100.00" startedHalts="0.00" meanVehicleNumber="1.00" maxVehicleNumber="1" />
   <interval begin="25000.00" end="25100.00" id="e2_L237_2_3" sampledSeconds="100.00" nVehEntered="0" nVehLeft="0" nVehSeen="1" meanSpeed="0.00" meanTimeLoss="100.00" meanOccupancy="14.62" maxOccupancy="14.62" meanMaxJamLengthInVehicles="1.00" meanMaxJamLengthInMeters="4.62" maxJamLengthInVehicles="1" maxJamLengthInMeters="4.62" jamLengthInVehiclesSum="100" jamLengthInMetersSum="462.00" meanHaltingDuration="1412.00" maxHaltingDuration="1412.00" haltingDurationSum="1412.00" meanIntervalHaltingDuration="100.00" maxIntervalHaltingDuration="100.00" intervalHaltingDurationSum="100.00" startedHalts="0.00" meanVehicleNumber="1.00" maxVehicleNumber="1" />
   <interval begin="25100.00" end="25200.00" id="e2_L237_2_3" sampledSeconds="100.00" nVehEntered="0" nVehLeft="0" nVehSeen="1" meanSpeed="0.00" meanTimeLoss="100.00" meanOccupancy="14.62" maxOccupancy="14.62" meanMaxJamLengthInVehicles="1.00" meanMaxJamLengthInMeters="4.62" maxJamLengthInVehicles="1" maxJamLengthInMeters="4.62" jamLengthInVehiclesSum="100" jamLengthInMetersSum="462.00" meanHaltingDuration="1512.00" maxHaltingDuration="1512.00" haltingDurationSum="1512.00" meanIntervalHaltingDuration="100.00" maxIntervalHaltingDuration="100.00" intervalHaltingDurationSum="100.00" startedHalts="0.00" meanVehicleNumber="1.00" maxVehicleNumber="1" />
   <interval begin="25200.00" end="25300.00" id="e2_L237_2_3" sampledSeconds="100.00" nVehEntered="0" nVehLeft="0" nVehSeen="1" meanSpeed="0.00" meanTimeLoss="100.00" meanOccupancy="14.62" maxOccupancy="14.62" meanMaxJamLengthInVehicles="1.00" meanMaxJamLengthInMeters="4.62" maxJamLengthInVehicles="1" maxJamLengthInMeters="4.62" jamLengthInVehiclesSum="100" jamLengthInMetersSum="462.00" meanHaltingDuration="1612.00" maxHaltingDuration="1612.00" haltingDurationSum="1612.00" meanIntervalHaltingDuration="100.00" maxIntervalHaltingDuration="100.00" intervalHaltingDurationSum="100.00" startedHalts="0.00" meanVehicleNumber="1.00" maxVehicleNumber="1" />
   <interval begin="25300.00" end="25400.00" id="e2_L237_2_3" sampledSeconds="100.00" nVehEntered="0" nVehLeft="0" nVehSeen="1" meanSpeed="0.00" meanTimeLoss="100.00" meanOccupancy="14.62" maxOccupancy="14.62" meanMaxJamLengthInVehicles="1.00" meanMaxJamLengthInMeters="4.62" maxJamLengthInVehicles="1" maxJamLengthInMeters="4.62" jamLengthInVehiclesSum="100" jamLengthInMetersSum="462.00" meanHaltingDuration="1712.00" maxHaltingDuration="1712.00" haltingDurationSum="1712.00" meanIntervalHaltingDuration="100.00" maxIntervalHaltingDuration="100.00" intervalHaltingDurationSum="100.00" startedHalts="0.00" meanVehicleNumber="1.00" maxVehicleNumber="1" />
   <interval begin="25400.00" end="25500.00" id="e2_L237_2_3" sampledSeconds="100.00" nVehEntered="0" nVehLeft="0" nVehSeen="1" meanSpeed="0.00" meanTimeLoss="100.00" meanOccupancy="14.62" maxOccupancy="14.62" meanMaxJamLengthInVehicles="1.00" meanMaxJamLengthInMeters="4.62" maxJamLengthInVehicles="1" maxJamLengthInMeters="4.62" jamLengthInVehiclesSum="100" jamLengthInMetersSum="462.00" meanHaltingDuration="1812.00" maxHaltingDuration="1812.00" haltingDurationSum="1812.00" meanIntervalHaltingDuration="100.00" maxIntervalHaltingDuration="100.00" intervalHaltingDurationSum="100.00" startedHalts="0.00" meanVehicleNumber="1.00" maxVehicleNumber="1" />
   <interval begin="25500.00" end="25600.00" id="e2_L237_2_3" sampledSeconds="100.00" nVehEntered="0" nVehLeft="0" nVehSeen="1" meanSpeed="0.00" meanTimeLoss="100.00" meanOccupancy="14.62" maxOccupancy="14.62" meanMaxJamLengthInVehicles="1.00" meanMaxJamLengthInMeters="4.62" maxJamLengthInVehicles="1" maxJamLengthInMeters="4.62" jamLengthInVehiclesSum="100" jamLengthInMetersSum="462.00" meanHaltingDuration="1912.00" maxHaltingDuration="1912.00" haltingDurationSum="1912.00" meanIntervalHaltingDuration="100.00" maxIntervalHaltingDuration="100.00" intervalHaltingDurationSum="100.00" startedHalts="0.00" meanVehicleNumber="1.00" maxVehicleNumber="1" />
   <interval begin="25600.00" end="25700.00" id="e2_L237_2_3" sampledSeconds="96.00" nVehEntered="1" nVehLeft="1" nVehSeen="2" meanSpeed="0.07" meanTimeLoss="47.72" meanOccupancy="14.04" maxOccupancy="14.62" meanMaxJamLengthInVehicles="0.92" meanMaxJamLengthInMeters="4.25" maxJamLengthInVehicles="1" maxJamLengthInMeters="4.62" jamLengthInVehiclesSum="92" jamLengthInMetersSum="425.04" meanHaltingDuration="39.00" maxHaltingDuration="39.00" haltingDurationSum="39.00" meanIntervalHaltingDuration="39.00" maxIntervalHaltingDuration="39.00" intervalHaltingDurationSum="39.00" startedHalts="1.00" meanVehicleNumber="0.96" maxVehicleNumber="1" />
   <interval begin="25700.00" end="25800.00" id="e2_L237_2_3" sampledSeconds="100.00" nVehEntered="0" nVehLeft="0" nVehSeen="1" meanSpeed="0.00" meanTimeLoss="99.99" meanOccupancy="14.62" maxOccupancy="14.62" meanMaxJamLengthInVehicles="1.00" meanMaxJamLengthInMeters="4.62" maxJamLengthInVehicles="1" maxJamLengthInMeters="4.62" jamLengthInVehiclesSum="100" jamLengthInMetersSum="462.00" meanHaltingDuration="139.00" maxHaltingDuration="139.00" haltingDurationSum="139.00" meanIntervalHaltingDuration="100.00" maxIntervalHaltingDuration="100.00" intervalHaltingDurationSum="100.00" startedHalts="0.00" meanVehicleNumber="1.00" maxVehicleNumber="1" />
   <interval begin="25800.00" end="25900.00" id="e2_L237_2_3" sampledSeconds="119.00" nVehEntered="4" nVehLeft="4" nVehSeen="5" meanSpeed="0.23" meanTimeLoss="23.36" meanOccupancy="17.40" maxOccupancy="29.25" meanMaxJamLengthInVehicles="1.01" meanMaxJamLengthInMeters="5.17" maxJamLengthInVehicles="2" maxJamLengthInMeters="15.92" jamLengthInVehiclesSum="101" jamLengthInMetersSum="516.99" meanHaltingDuration="41.80" maxHaltingDuration="141.00" haltingDurationSum="209.00" meanIntervalHaltingDuration="14.00" maxIntervalHaltingDuration="60.00" intervalHaltingDurationSum="70.00" startedHalts="8.00" meanVehicleNumber="1.19" maxVehicleNumber="2" />