<?xml version="1.0" encoding="UTF-8"?>

<!-- generated on Sun Feb 17 15:57:00 2019 by 
<configuration xmlns:xsi="http://www.w3.org/2001/XMLSchema-instance" xsi:noNamespaceSchemaLocation="http://sumo.dlr.de/xsd/Configuration.xsd">

    <input>
        <net-file value="/home/sda/Documents/sumo-sathorn-ray/models/sathorn-morning/sathorn_w_fixed_20160404.net.xml"/>
        <route-files value="/home/sda/Documents/sumo-sathorn-ray/models/sathorn-morning/Great-route/sathorn_w_20160422edit2.rou.xml"/>
        <additional-files value="/home/sda/Documents/sumo-sathorn-ray/models/sathorn-morning/sathon_wide_tls_20160418_edited.add.xml,/home/sda/Documents/sumo-sathorn-ray/detectors/sathorn_w_detectors.add.xml"/>
    </input>

    <time>
        <begin value="21600"/>
        <end value="32400"/>
        <step-length value="1"/>
    </time>

    <processing>
        <no-internal-links value="true"/>
        <ignore-junction-blocker value="-1"/>
        <time-to-teleport value="-1"/>
        <eager-insert value="true"/>
        <time-to-impatience value="300"/>
    </processing>

    <report>
        <no-warnings value="true"/>
    </report>

    <random_number>
        <random value="false"/>
        <seed value="20"/>
    </random_number>

    <gui_only>
        <gui-settings-file value="/home/sda/Documents/sumo-sathorn-ray/gui-settings/gui-settings-file-surasak.xml"/>
        <quit-on-end value="true"/>
        <start value="true"/>
        <tracker-interval value="1"/>
    </gui_only>

</configuration>
-->

<detector xmlns:xsi="http://www.w3.org/2001/XMLSchema-instance" xsi:noNamespaceSchemaLocation="http://sumo.dlr.de/xsd/det_e2_file.xsd">
   <interval begin="21600.00" end="21700.00" id="e2_L197#2_1_1" sampledSeconds="0.00" nVehEntered="0" nVehLeft="0" nVehSeen="0" meanSpeed="-1.00" meanTimeLoss="-1.00" meanOccupancy="0.00" maxOccupancy="0.00" meanMaxJamLengthInVehicles="0.00" meanMaxJamLengthInMeters="0.00" maxJamLengthInVehicles="0" maxJamLengthInMeters="0.00" jamLengthInVehiclesSum="0" jamLengthInMetersSum="0.00" meanHaltingDuration="0.00" maxHaltingDuration="0.00" haltingDurationSum="0.00" meanIntervalHaltingDuration="0.00" maxIntervalHaltingDuration="0.00" intervalHaltingDurationSum="0.00" startedHalts="0.00" meanVehicleNumber="0.00" maxVehicleNumber="0" />
   <interval begin="21700.00" end="21800.00" id="e2_L197#2_1_1" sampledSeconds="0.00" nVehEntered="0" nVehLeft="0" nVehSeen="0" meanSpeed="-1.00" meanTimeLoss="-1.00" meanOccupancy="0.00" maxOccupancy="0.00" meanMaxJamLengthInVehicles="0.00" meanMaxJamLengthInMeters="0.00" maxJamLengthInVehicles="0" maxJamLengthInMeters="0.00" jamLengthInVehiclesSum="0" jamLengthInMetersSum="0.00" meanHaltingDuration="0.00" maxHaltingDuration="0.00" haltingDurationSum="0.00" meanIntervalHaltingDuration="0.00" maxIntervalHaltingDuration="0.00" intervalHaltingDurationSum="0.00" startedHalts="0.00" meanVehicleNumber="0.00" maxVehicleNumber="0" />
   <interval begin="21800.00" end="21900.00" id="e2_L197#2_1_1" sampledSeconds="13.71" nVehEntered="4" nVehLeft="3" nVehSeen="4" meanSpeed="11.53" meanTimeLoss="0.27" meanOccupancy="1.55" maxOccupancy="17.93" meanMaxJamLengthInVehicles="0.00" meanMaxJamLengthInMeters="0.00" maxJamLengthInVehicles="0" maxJamLengthInMeters="0.00" jamLengthInVehiclesSum="0" jamLengthInMetersSum="0.00" meanHaltingDuration="0.00" maxHaltingDuration="0.00" haltingDurationSum="0.00" meanIntervalHaltingDuration="0.00" maxIntervalHaltingDuration="0.00" intervalHaltingDurationSum="0.00" startedHalts="0.00" meanVehicleNumber="0.18" maxVehicleNumber="2" />
   <interval begin="21900.00" end="22000.00" id="e2_L197#2_1_1" sampledSeconds="272.72" nVehEntered="18" nVehLeft="14" nVehSeen="19" meanSpeed="1.50" meanTimeLoss="12.63" meanOccupancy="30.46" maxOccupancy="56.94" meanMaxJamLengthInVehicles="2.03" meanMaxJamLengthInMeters="12.27" maxJamLengthInVehicles="5" maxJamLengthInMeters="32.62" jamLengthInVehiclesSum="203" jamLengthInMetersSum="1227.24" meanHaltingDuration="26.12" maxHaltingDuration="40.00" haltingDurationSum="209.00" meanIntervalHaltingDuration="26.12" maxIntervalHaltingDuration="40.00" intervalHaltingDurationSum="209.00" startedHalts="9.00" meanVehicleNumber="2.85" maxVehicleNumber="5" />
   <interval begin="22000.00" end="22100.00" id="e2_L197#2_1_1" sampledSeconds="586.44" nVehEntered="2" nVehLeft="1" nVehSeen="7" meanSpeed="0.01" meanTimeLoss="83.72" meanOccupancy="67.25" maxOccupancy="68.86" meanMaxJamLengthInVehicles="5.84" meanMaxJamLengthInMeters="38.46" maxJamLengthInVehicles="6" maxJamLengthInMeters="39.63" jamLengthInVehiclesSum="584" jamLengthInMetersSum="3845.73" meanHaltingDuration="116.83" maxHaltingDuration="138.00" haltingDurationSum="701.00" meanIntervalHaltingDuration="97.50" maxIntervalHaltingDuration="100.00" intervalHaltingDurationSum="585.00" startedHalts="1.00" meanVehicleNumber="5.88" maxVehicleNumber="6" />
   <interval begin="22100.00" end="22200.00" id="e2_L197#2_1_1" sampledSeconds="600.00" nVehEntered="0" nVehLeft="0" nVehSeen="6" meanSpeed="0.00" meanTimeLoss="100.00" meanOccupancy="68.86" maxOccupancy="68.86" meanMaxJamLengthInVehicles="6.00" meanMaxJamLengthInMeters="39.58" maxJamLengthInVehicles="6" maxJamLengthInMeters="39.58" jamLengthInVehiclesSum="600" jamLengthInMetersSum="3957.53" meanHaltingDuration="216.83" maxHaltingDuration="238.00" haltingDurationSum="1301.00" meanIntervalHaltingDuration="100.00" maxIntervalHaltingDuration="100.00" intervalHaltingDurationSum="600.00" startedHalts="0.00" meanVehicleNumber="6.00" maxVehicleNumber="6" />
   <interval begin="22200.00" end="22300.00" id="e2_L197#2_1_1" sampledSeconds="591.66" nVehEntered="1" nVehLeft="1" nVehSeen="7" meanSpeed="0.08" meanTimeLoss="83.96" meanOccupancy="66.68" maxOccupancy="68.86" meanMaxJamLengthInVehicles="5.68" meanMaxJamLengthInMeters="37.53" maxJamLengthInVehicles="6" maxJamLengthInMeters="41.11" jamLengthInVehiclesSum="572" jamLengthInMetersSum="3769.33" meanHaltingDuration="125.47" maxHaltingDuration="289.00" haltingDurationSum="1882.00" meanIntervalHaltingDuration="38.73" maxIntervalHaltingDuration="59.00" intervalHaltingDurationSum="581.00" startedHalts="9.00" meanVehicleNumber="5.92" maxVehicleNumber="6" />
   <interval begin="22300.00" end="22400.00" id="e2_L197#2_1_1" sampledSeconds="582.73" nVehEntered="2" nVehLeft="2" nVehSeen="8" meanSpeed="0.14" meanTimeLoss="72.03" meanOccupancy="66.04" maxOccupancy="68.87" meanMaxJamLengthInVehicles="5.48" meanMaxJamLengthInMeters="36.07" maxJamLengthInVehicles="6" maxJamLengthInMeters="39.78" jamLengthInVehiclesSum="549" jamLengthInMetersSum="3608.69" meanHaltingDuration="57.50" maxHaltingDuration="71.00" haltingDurationSum="805.00" meanIntervalHaltingDuration="39.78" maxIntervalHaltingDuration="71.00" intervalHaltingDurationSum="557.00" startedHalts="9.00" meanVehicleNumber="5.85" maxVehicleNumber="6" />
   <interval begin="22400.00" end="22500.00" id="e2_L197#2_1_1" sampledSeconds="600.00" nVehEntered="0" nVehLeft="0" nVehSeen="6" meanSpeed="0.00" meanTimeLoss="100.00" meanOccupancy="68.86" maxOccupancy="68.86" meanMaxJamLengthInVehicles="6.00" meanMaxJamLengthInMeters="39.58" maxJamLengthInVehicles="6" maxJamLengthInMeters="39.58" jamLengthInVehiclesSum="600" jamLengthInMetersSum="3957.52" meanHaltingDuration="167.17" maxHaltingDuration="171.00" haltingDurationSum="1003.00" meanIntervalHaltingDuration="100.00" maxIntervalHaltingDuration="100.00" intervalHaltingDurationSum="600.00" startedHalts="0.00" meanVehicleNumber="6.00" maxVehicleNumber="6" />
   <interval begin="22500.00" end="22600.00" id="e2_L197#2_1_1" sampledSeconds="600.00" nVehEntered="0" nVehLeft="0" nVehSeen="6" meanSpeed="0.00" meanTimeLoss="100.00" meanOccupancy="68.86" maxOccupancy="68.86" meanMaxJamLengthInVehicles="6.00" meanMaxJamLengthInMeters="39.58" maxJamLengthInVehicles="6" maxJamLengthInMeters="39.58" jamLengthInVehiclesSum="600" jamLengthInMetersSum="3957.52" meanHaltingDuration="267.17" maxHaltingDuration="271.00" haltingDurationSum="1603.00" meanIntervalHaltingDuration="100.00" maxIntervalHaltingDuration="100.00" intervalHaltingDurationSum="600.00" startedHalts="0.00" meanVehicleNumber="6.00" maxVehicleNumber="6" />
   <interval begin="22600.00" end="22700.00" id="e2_L197#2_1_1" sampledSeconds="600.00" nVehEntered="0" nVehLeft="0" nVehSeen="6" meanSpeed="0.00" meanTimeLoss="100.00" meanOccupancy="68.86" maxOccupancy="68.86" meanMaxJamLengthInVehicles="6.00" meanMaxJamLengthInMeters="39.58" maxJamLengthInVehicles="6" maxJamLengthInMeters="39.58" jamLengthInVehiclesSum="600" jamLengthInMetersSum="3957.52" meanHaltingDuration="367.17" maxHaltingDuration="371.00" haltingDurationSum="2203.00" meanIntervalHaltingDuration="100.00" maxIntervalHaltingDuration="100.00" intervalHaltingDurationSum="600.00" startedHalts="0.00" meanVehicleNumber="6.00" maxVehicleNumber="6" />
   <interval begin="22700.00" end="22800.00" id="e2_L197#2_1_1" sampledSeconds="600.00" nVehEntered="0" nVehLeft="0" nVehSeen="6" meanSpeed="0.00" meanTimeLoss="100.00" meanOccupancy="68.86" maxOccupancy="68.86" meanMaxJamLengthInVehicles="6.00" meanMaxJamLengthInMeters="39.58" maxJamLengthInVehicles="6" maxJamLengthInMeters="39.58" jamLengthInVehiclesSum="600" jamLengthInMetersSum="3957.52" meanHaltingDuration="467.17" maxHaltingDuration="471.00" haltingDurationSum="2803.00" meanIntervalHaltingDuration="100.00" maxIntervalHaltingDuration="100.00" intervalHaltingDurationSum="600.00" startedHalts="0.00" meanVehicleNumber="6.00" maxVehicleNumber="6" />
   <interval begin="22800.00" end="22900.00" id="e2_L197#2_1_1" sampledSeconds="600.00" nVehEntered="0" nVehLeft="0" nVehSeen="6" meanSpeed="0.00" meanTimeLoss="100.00" meanOccupancy="68.86" maxOccupancy="68.86" meanMaxJamLengthInVehicles="6.00" meanMaxJamLengthInMeters="39.58" maxJamLengthInVehicles="6" maxJamLengthInMeters="39.58" jamLengthInVehiclesSum="600" jamLengthInMetersSum="3957.52" meanHaltingDuration="567.17" maxHaltingDuration="571.00" haltingDurationSum="3403.00" meanIntervalHaltingDuration="100.00" maxIntervalHaltingDuration="100.00" intervalHaltingDurationSum="600.00" startedHalts="0.00" meanVehicleNumber="6.00" maxVehicleNumber="6" />
   <interval begin="22900.00" end="23000.00" id="e2_L197#2_1_1" sampledSeconds="600.00" nVehEntered="0" nVehLeft="0" nVehSeen="6" meanSpeed="0.00" meanTimeLoss="100.00" meanOccupancy="68.86" maxOccupancy="68.86" meanMaxJamLengthInVehicles="6.00" meanMaxJamLengthInMeters="39.58" maxJamLengthInVehicles="6" maxJamLengthInMeters="39.58" jamLengthInVehiclesSum="600" jamLengthInMetersSum="3957.52" meanHaltingDuration="667.17" maxHaltingDuration="671.00" haltingDurationSum="4003.00" meanIntervalHaltingDuration="100.00" maxIntervalHaltingDuration="100.00" intervalHaltingDurationSum="600.00" startedHalts="0.00" meanVehicleNumber="6.00" maxVehicleNumber="6" />
   <interval begin="23000.00" end="23100.00" id="e2_L197#2_1_1" sampledSeconds="600.00" nVehEntered="0" nVehLeft="0" nVehSeen="6" meanSpeed="0.00" meanTimeLoss="100.00" meanOccupancy="68.86" maxOccupancy="68.86" meanMaxJamLengthInVehicles="6.00" meanMaxJamLengthInMeters="39.58" maxJamLengthInVehicles="6" maxJamLengthInMeters="39.58" jamLengthInVehiclesSum="600" jamLengthInMetersSum="3957.52" meanHaltingDuration="767.17" maxHaltingDuration="771.00" haltingDurationSum="4603.00" meanIntervalHaltingDuration="100.00" maxIntervalHaltingDuration="100.00" intervalHaltingDurationSum="600.00" startedHalts="0.00" meanVehicleNumber="6.00" maxVehicleNumber="6" />
   <interval begin="23100.00" end="23200.00" id="e2_L197#2_1_1" sampledSeconds="600.00" nVehEntered="0" nVehLeft="0" nVehSeen="6" meanSpeed="0.00" meanTimeLoss="100.00" meanOccupancy="68.86" maxOccupancy="68.86" meanMaxJamLengthInVehicles="6.00" meanMaxJamLengthInMeters="39.58" maxJamLengthInVehicles="6" maxJamLengthInMeters="39.58" jamLengthInVehiclesSum="600" jamLengthInMetersSum="3957.52" meanHaltingDuration="867.17" maxHaltingDuration="871.00" haltingDurationSum="5203.00" meanIntervalHaltingDuration="100.00" maxIntervalHaltingDuration="100.00" intervalHaltingDurationSum="600.00" startedHalts="0.00" meanVehicleNumber="6.00" maxVehicleNumber="6" />
   <interval begin="23200.00" end="23300.00" id="e2_L197#2_1_1" sampledSeconds="600.00" nVehEntered="0" nVehLeft="0" nVehSeen="6" meanSpeed="0.00" meanTimeLoss="100.00" meanOccupancy="68.86" maxOccupancy="68.86" meanMaxJamLengthInVehicles="6.00" meanMaxJamLengthInMeters="39.58" maxJamLengthInVehicles="6" maxJamLengthInMeters="39.58" jamLengthInVehiclesSum="600" jamLengthInMetersSum="3957.52" meanHaltingDuration="967.17" maxHaltingDuration="971.00" haltingDurationSum="5803.00" meanIntervalHaltingDuration="100.00" maxIntervalHaltingDuration="100.00" intervalHaltingDurationSum="600.00" startedHalts="0.00" meanVehicleNumber="6.00" maxVehicleNumber="6" />
   <interval begin="23300.00" end="23400.00" id="e2_L197#2_1_1" sampledSeconds="600.00" nVehEntered="0" nVehLeft="0" nVehSeen="6" meanSpeed="0.00" meanTimeLoss="100.00" meanOccupancy="68.86" maxOccupancy="68.86" meanMaxJamLengthInVehicles="6.00" meanMaxJamLengthInMeters="39.58" maxJamLengthInVehicles="6" maxJamLengthInMeters="39.58" jamLengthInVehiclesSum="600" jamLengthInMetersSum="3957.52" meanHaltingDuration="1067.17" maxHaltingDuration="1071.00" haltingDurationSum="6403.00" meanIntervalHaltingDuration="100.00" maxIntervalHaltingDuration="100.00" intervalHaltingDurationSum="600.00" startedHalts="0.00" meanVehicleNumber="6.00" maxVehicleNumber="6" />
   <interval begin="23400.00" end="23500.00" id="e2_L197#2_1_1" sampledSeconds="576.02" nVehEntered="2" nVehLeft="2" nVehSeen="8" meanSpeed="0.15" meanTimeLoss="71.13" meanOccupancy="65.85" maxOccupancy="68.87" meanMaxJamLengthInVehicles="5.39" meanMaxJamLengthInMeters="35.51" maxJamLengthInVehicles="6" maxJamLengthInMeters="40.43" jamLengthInVehiclesSum="539" jamLengthInMetersSum="3551.19" meanHaltingDuration="496.43" maxHaltingDuration="1113.00" haltingDurationSum="6950.00" meanIntervalHaltingDuration="39.07" maxIntervalHaltingDuration="51.00" intervalHaltingDurationSum="547.00" startedHalts="9.00" meanVehicleNumber="5.78" maxVehicleNumber="6" />
   <interval begin="23500.00" end="23600.00" id="e2_L197#2_1_1" sampledSeconds="600.00" nVehEntered="0" nVehLeft="0" nVehSeen="6" meanSpeed="0.00" meanTimeLoss="100.00" meanOccupancy="68.87" maxOccupancy="68.87" meanMaxJamLengthInVehicles="6.00" meanMaxJamLengthInMeters="39.58" maxJamLengthInVehicles="6" maxJamLengthInMeters="39.58" jamLengthInVehiclesSum="600" jamLengthInMetersSum="3957.52" meanHaltingDuration="146.00" maxHaltingDuration="151.00" haltingDurationSum="876.00" meanIntervalHaltingDuration="100.00" maxIntervalHaltingDuration="100.00" intervalHaltingDurationSum="600.00" startedHalts="0.00" meanVehicleNumber="6.00" maxVehicleNumber="6" />
   <interval begin="23600.00" end="23700.00" id="e2_L197#2_1_1" sampledSeconds="600.00" nVehEntered="0" nVehLeft="0" nVehSeen="6" meanSpeed="0.00" meanTimeLoss="100.00" meanOccupancy="68.87" maxOccupancy="68.87" meanMaxJamLengthInVehicles="6.00" meanMaxJamLengthInMeters="39.58" maxJamLengthInVehicles="6" maxJamLengthInMeters="39.58" jamLengthInVehiclesSum="600" jamLengthInMetersSum="3957.52" meanHaltingDuration="246.00" maxHaltingDuration="251.00" haltingDurationSum="1476.00" meanIntervalHaltingDuration="100.00" maxIntervalHaltingDuration="100.00" intervalHaltingDurationSum="600.00" startedHalts="0.00" meanVehicleNumber="6.00" maxVehicleNumber="6" />
   <interval begin="23700.00" end="23800.00" id="e2_L197#2_1_1" sampledSeconds="600.00" nVehEntered="0" nVehLeft="0" nVehSeen="6" meanSpeed="0.00" meanTimeLoss="100.00" meanOccupancy="68.87" maxOccupancy="68.87" meanMaxJamLengthInVehicles="6.00" meanMaxJamLengthInMeters="39.58" maxJamLengthInVehicles="6" maxJamLengthInMeters="39.58" jamLengthInVehiclesSum="600" jamLengthInMetersSum="3957.52" meanHaltingDuration="346.00" maxHaltingDuration="351.00" haltingDurationSum="2076.00" meanIntervalHaltingDuration="100.00" maxIntervalHaltingDuration="100.00" intervalHaltingDurationSum="600.00" startedHalts="0.00" meanVehicleNumber="6.00" maxVehicleNumber="6" />
   <interval begin="23800.00" end="23900.00" id="e2_L197#2_1_1" sampledSeconds="583.99" nVehEntered="2" nVehLeft="2" nVehSeen="8" meanSpeed="0.15" meanTimeLoss="72.13" meanOccupancy="66.62" maxOccupancy="68.87" meanMaxJamLengthInVehicles="5.46" meanMaxJamLengthInMeters="35.94" maxJamLengthInVehicles="6" maxJamLengthInMeters="40.11" jamLengthInVehiclesSum="546" jamLengthInMetersSum="3593.82" meanHaltingDuration="164.50" maxHaltingDuration="382.00" haltingDurationSum="2632.00" meanIntervalHaltingDuration="34.75" maxIntervalHaltingDuration="62.00" intervalHaltingDurationSum="556.00" startedHalts="10.00" meanVehicleNumber="5.87" maxVehicleNumber="6" />
   <interval begin="23900.00" end="24000.00" id="e2_L197#2_1_1" sampledSeconds="583.19" nVehEntered="2" nVehLeft="2" nVehSeen="8" meanSpeed="0.15" meanTimeLoss="72.03" meanOccupancy="66.57" maxOccupancy="68.86" meanMaxJamLengthInVehicles="5.51" meanMaxJamLengthInMeters="36.31" maxJamLengthInVehicles="6" maxJamLengthInMeters="40.76" jamLengthInVehiclesSum="551" jamLengthInMetersSum="3631.07" meanHaltingDuration="75.67" maxHaltingDuration="134.00" haltingDurationSum="908.00" meanIntervalHaltingDuration="46.42" maxIntervalHaltingDuration="78.00" intervalHaltingDurationSum="557.00" startedHalts="6.00" meanVehicleNumber="5.85" maxVehicleNumber="6" />
   <interval begin="24000.00" end="24100.00" id="e2_L197#2_1_1" sampledSeconds="600.00" nVehEntered="0" nVehLeft="0" nVehSeen="6" meanSpeed="0.00" meanTimeLoss="100.00" meanOccupancy="68.86" maxOccupancy="68.86" meanMaxJamLengthInVehicles="6.00" meanMaxJamLengthInMeters="39.58" maxJamLengthInVehicles="6" maxJamLengthInMeters="39.58" jamLengthInVehiclesSum="600" jamLengthInMetersSum="3957.52" meanHaltingDuration="118.50" maxHaltingDuration="122.00" haltingDurationSum="711.00" meanIntervalHaltingDuration="100.00" maxIntervalHaltingDuration="100.00" intervalHaltingDurationSum="600.00" startedHalts="0.00" meanVehicleNumber="6.00" maxVehicleNumber="6" />
   <interval begin="24100.00" end="24200.00" id="e2_L197#2_1_1" sampledSeconds="593.19" nVehEntered="1" nVehLeft="1" nVehSeen="7" meanSpeed="0.07" meanTimeLoss="84.25" meanOccupancy="67.77" maxOccupancy="68.86" meanMaxJamLengthInVehicles="5.77" meanMaxJamLengthInMeters="38.16" maxJamLengthInVehicles="6" maxJamLengthInMeters="41.79" jamLengthInVehiclesSum="578" jamLengthInMetersSum="3820.02" meanHaltingDuration="107.92" maxHaltingDuration="145.00" haltingDurationSum="1295.00" meanIntervalHaltingDuration="48.67" maxIntervalHaltingDuration="74.00" intervalHaltingDurationSum="584.00" startedHalts="6.00" meanVehicleNumber="5.94" maxVehicleNumber="6" />
   <interval begin="24200.00" end="24300.00" id="e2_L197#2_1_1" sampledSeconds="600.00" nVehEntered="0" nVehLeft="0" nVehSeen="6" meanSpeed="0.00" meanTimeLoss="100.00" meanOccupancy="68.86" maxOccupancy="68.86" meanMaxJamLengthInVehicles="6.00" meanMaxJamLengthInMeters="39.58" maxJamLengthInVehicles="6" maxJamLengthInMeters="39.58" jamLengthInVehiclesSum="600" jamLengthInMetersSum="3957.51" meanHaltingDuration="172.17" maxHaltingDuration="174.00" haltingDurationSum="1033.00" meanIntervalHaltingDuration="100.00" maxIntervalHaltingDuration="100.00" intervalHaltingDurationSum="600.00" startedHalts="0.00" meanVehicleNumber="6.00" maxVehicleNumber="6" />
   <interval begin="24300.00" end="24400.00" id="e2_L197#2_1_1" sampledSeconds="600.00" nVehEntered="0" nVehLeft="0" nVehSeen="6" meanSpeed="0.00" meanTimeLoss="100.00" meanOccupancy="68.86" maxOccupancy="68.86" meanMaxJamLengthInVehicles="6.00" meanMaxJamLengthInMeters="39.58" maxJamLengthInVehicles="6" maxJamLengthInMeters="39.58" jamLengthInVehiclesSum="600" jamLengthInMetersSum="3957.51" meanHaltingDuration="272.17" maxHaltingDuration="274.00" haltingDurationSum="1633.00" meanIntervalHaltingDuration="100.00" maxIntervalHaltingDuration="100.00" intervalHaltingDurationSum="600.00" startedHalts="0.00" meanVehicleNumber="6.00" maxVehicleNumber="6" />
   <interval begin="24400.00" end="24500.00" id="e2_L197#2_1_1" sampledSeconds="600.00" nVehEntered="0" nVehLeft="0" nVehSeen="6" meanSpeed="0.00" meanTimeLoss="100.00" meanOccupancy="68.86" maxOccupancy="68.86" meanMaxJamLengthInVehicles="6.00" meanMaxJamLengthInMeters="39.58" maxJamLengthInVehicles="6" maxJamLengthInMeters="39.58" jamLengthInVehiclesSum="600" jamLengthInMetersSum="3957.51" meanHaltingDuration="372.17" maxHaltingDuration="374.00" haltingDurationSum="2233.00" meanIntervalHaltingDuration="100.00" maxIntervalHaltingDuration="100.00" intervalHaltingDurationSum="600.00" startedHalts="0.00" meanVehicleNumber="6.00" maxVehicleNumber="6" />
   <interval begin="24500.00" end="24600.00" id="e2_L197#2_1_1" sampledSeconds="600.00" nVehEntered="0" nVehLeft="0" nVehSeen="6" meanSpeed="0.00" meanTimeLoss="100.00" meanOccupancy="68.86" maxOccupancy="68.86" meanMaxJamLengthInVehicles="6.00" meanMaxJamLengthInMeters="39.58" maxJamLengthInVehicles="6" maxJamLengthInMeters="39.58" jamLengthInVehiclesSum="600" jamLengthInMetersSum="3957.51" meanHaltingDuration="472.17" maxHaltingDuration="474.00" haltingDurationSum="2833.00" meanIntervalHaltingDuration="100.00" maxIntervalHaltingDuration="100.00" intervalHaltingDurationSum="600.00" startedHalts="0.00" meanVehicleNumber="6.00" maxVehicleNumber="6" />
   <interval begin="24600.00" end="24700.00" id="e2_L197#2_1_1" sampledSeconds="600.00" nVehEntered="0" nVehLeft="0" nVehSeen="6" meanSpeed="0.00" meanTimeLoss="100.00" meanOccupancy="68.86" maxOccupancy="68.86" meanMaxJamLengthInVehicles="6.00" meanMaxJamLengthInMeters="39.58" maxJamLengthInVehicles="6" maxJamLengthInMeters="39.58" jamLengthInVehiclesSum="600" jamLengthInMetersSum="3957.51" meanHaltingDuration="572.17" maxHaltingDuration="574.00" haltingDurationSum="3433.00" meanIntervalHaltingDuration="100.00" maxIntervalHaltingDuration="100.00" intervalHaltingDurationSum="600.00" startedHalts="0.00" meanVehicleNumber="6.00" maxVehicleNumber="6" />
   <interval begin="24700.00" end="24800.00" id="e2_L197#2_1_1" sampledSeconds="600.00" nVehEntered="0" nVehLeft="0" nVehSeen="6" meanSpeed="0.01" meanTimeLoss="99.93" meanOccupancy="68.00" maxOccupancy="68.86" meanMaxJamLengthInVehicles="6.00" meanMaxJamLengthInMeters="39.65" maxJamLengthInVehicles="6" maxJamLengthInMeters="40.44" jamLengthInVehiclesSum="600" jamLengthInMetersSum="3964.57" meanHaltingDuration="672.17" maxHaltingDuration="674.00" haltingDurationSum="4033.00" meanIntervalHaltingDuration="100.00" maxIntervalHaltingDuration="100.00" intervalHaltingDurationSum="600.00" startedHalts="0.00" meanVehicleNumber="6.00" maxVehicleNumber="6" />
   <interval begin="24800.00" end="24900.00" id="e2_L197#2_1_1" sampledSeconds="600.00" nVehEntered="0" nVehLeft="0" nVehSeen="6" meanSpeed="0.00" meanTimeLoss="100.00" meanOccupancy="66.54" maxOccupancy="66.54" meanMaxJamLengthInVehicles="6.00" meanMaxJamLengthInMeters="39.58" maxJamLengthInVehicles="6" maxJamLengthInMeters="39.58" jamLengthInVehiclesSum="600" jamLengthInMetersSum="3957.52" meanHaltingDuration="772.17" maxHaltingDuration="774.00" haltingDurationSum="4633.00" meanIntervalHaltingDuration="100.00" maxIntervalHaltingDuration="100.00" intervalHaltingDurationSum="600.00" startedHalts="0.00" meanVehicleNumber="6.00" maxVehicleNumber="6" />
   <interval begin="24900.00" end="25000.00" id="e2_L197#2_1_1" sampledSeconds="600.00" nVehEntered="0" nVehLeft="0" nVehSeen="6" meanSpeed="0.00" meanTimeLoss="100.00" meanOccupancy="66.54" maxOccupancy="66.54" meanMaxJamLengthInVehicles="6.00" meanMaxJamLengthInMeters="39.58" maxJamLengthInVehicles="6" maxJamLengthInMeters="39.58" jamLengthInVehiclesSum="600" jamLengthInMetersSum="3957.52" meanHaltingDuration="872.17" maxHaltingDuration="874.00" haltingDurationSum="5233.00" meanIntervalHaltingDuration="100.00" maxIntervalHaltingDuration="100.00" intervalHaltingDurationSum="600.00" startedHalts="0.00" meanVehicleNumber="6.00" maxVehicleNumber="6" />
   <interval begin="25000.00" end="25100.00" id="e2_L197#2_1_1" sampledSeconds="600.00" nVehEntered="0" nVehLeft="0" nVehSeen="6" meanSpeed="0.00" meanTimeLoss="100.00" meanOccupancy="66.54" maxOccupancy="66.54" meanMaxJamLengthInVehicles="6.00" meanMaxJamLengthInMeters="39.58" maxJamLengthInVehicles="6" maxJamLengthInMeters="39.58" jamLengthInVehiclesSum="600" jamLengthInMetersSum="3957.52" meanHaltingDuration="972.17" maxHaltingDuration="974.00" haltingDurationSum="5833.00" meanIntervalHaltingDuration="100.00" maxIntervalHaltingDuration="100.00" intervalHaltingDurationSum="600.00" startedHalts="0.00" meanVehicleNumber="6.00" maxVehicleNumber="6" />
   <interval begin="25100.00" end="25200.00" id="e2_L197#2_1_1" sampledSeconds="600.00" nVehEntered="0" nVehLeft="0" nVehSeen="6" meanSpeed="0.00" meanTimeLoss="100.00" meanOccupancy="66.54" maxOccupancy="66.54" meanMaxJamLengthInVehicles="6.00" meanMaxJamLengthInMeters="39.58" maxJamLengthInVehicles="6" maxJamLengthInMeters="39.58" jamLengthInVehiclesSum="600" jamLengthInMetersSum="3957.51" meanHaltingDuration="1072.17" maxHaltingDuration="1074.00" haltingDurationSum="6433.00" meanIntervalHaltingDuration="100.00" maxIntervalHaltingDuration="100.00" intervalHaltingDurationSum="600.00" startedHalts="0.00" meanVehicleNumber="6.00" maxVehicleNumber="6" />
   <interval begin="25200.00" end="25300.00" id="e2_L197#2_1_1" sampledSeconds="600.00" nVehEntered="0" nVehLeft="0" nVehSeen="6" meanSpeed="0.00" meanTimeLoss="100.00" meanOccupancy="66.54" maxOccupancy="66.54" meanMaxJamLengthInVehicles="6.00" meanMaxJamLengthInMeters="39.58" maxJamLengthInVehicles="6" maxJamLengthInMeters="39.58" jamLengthInVehiclesSum="600" jamLengthInMetersSum="3957.51" meanHaltingDuration="1172.17" maxHaltingDuration="1174.00" haltingDurationSum="7033.00" meanIntervalHaltingDuration="100.00" maxIntervalHaltingDuration="100.00" intervalHaltingDurationSum="600.00" startedHalts="0.00" meanVehicleNumber="6.00" maxVehicleNumber="6" />
   <interval begin="25300.00" end="25400.00" id="e2_L197#2_1_1" sampledSeconds="600.00" nVehEntered="0" nVehLeft="0" nVehSeen="6" meanSpeed="0.00" meanTimeLoss="100.00" meanOccupancy="66.54" maxOccupancy="66.54" meanMaxJamLengthInVehicles="6.00" meanMaxJamLengthInMeters="39.58" maxJamLengthInVehicles="6" maxJamLengthInMeters="39.58" jamLengthInVehiclesSum="600" jamLengthInMetersSum="3957.51" meanHaltingDuration="1272.17" maxHaltingDuration="1274.00" haltingDurationSum="7633.00" meanIntervalHaltingDuration="100.00" maxIntervalHaltingDuration="100.00" intervalHaltingDurationSum="600.00" startedHalts="0.00" meanVehicleNumber="6.00" maxVehicleNumber="6" />
   <interval begin="25400.00" end="25500.00" id="e2_L197#2_1_1" sampledSeconds="534.75" nVehEntered="5" nVehLeft="8" nVehSeen="11" meanSpeed="0.52" meanTimeLoss="46.59" meanOccupancy="59.36" maxOccupancy="68.87" meanMaxJamLengthInVehicles="4.36" meanMaxJamLengthInMeters="28.78" maxJamLengthInVehicles="6" maxJamLengthInMeters="42.04" jamLengthInVehiclesSum="440" jamLengthInMetersSum="2896.36" meanHaltingDuration="351.74" maxHaltingDuration="1309.00" haltingDurationSum="8090.00" meanIntervalHaltingDuration="19.87" maxIntervalHaltingDuration="39.00" intervalHaltingDurationSum="457.00" startedHalts="17.00" meanVehicleNumber="5.44" maxVehicleNumber="6" />
   <interval begin="25500.00" end="25600.00" id="e2_L197#2_1_1" sampledSeconds="495.56" nVehEntered="6" nVehLeft="4" nVehSeen="9" meanSpeed="0.40" meanTimeLoss="53.32" meanOccupancy="56.58" maxOccupancy="66.54" meanMaxJamLengthInVehicles="3.99" meanMaxJamLengthInMeters="26.06" maxJamLengthInVehicles="6" maxJamLengthInMeters="41.11" jamLengthInVehiclesSum="411" jamLengthInMetersSum="2660.71" meanHaltingDuration="18.87" maxHaltingDuration="52.00" haltingDurationSum="434.00" meanIntervalHaltingDuration="18.87" maxIntervalHaltingDuration="52.00" intervalHaltingDurationSum="434.00" startedHalts="23.00" meanVehicleNumber="5.00" maxVehicleNumber="6" />
   <interval begin="25600.00" end="25700.00" id="e2_L197#2_1_1" sampledSeconds="458.48" nVehEntered="11" nVehLeft="10" nVehSeen="16" meanSpeed="1.04" meanTimeLoss="26.28" meanOccupancy="51.16" maxOccupancy="68.87" meanMaxJamLengthInVehicles="2.85" meanMaxJamLengthInMeters="18.58" maxJamLengthInVehicles="6" maxJamLengthInMeters="39.78" jamLengthInVehiclesSum="286" jamLengthInMetersSum="1860.62" meanHaltingDuration="12.00" maxHaltingDuration="53.00" haltingDurationSum="312.00" meanIntervalHaltingDuration="11.92" maxIntervalHaltingDuration="53.00" intervalHaltingDurationSum="310.00" startedHalts="24.00" meanVehicleNumber="4.69" maxVehicleNumber="6" />
   <interval begin="25700.00" end="25800.00" id="e2_L197#2_1_1" sampledSeconds="600.00" nVehEntered="0" nVehLeft="0" nVehSeen="6" meanSpeed="0.00" meanTimeLoss="100.00" meanOccupancy="68.86" maxOccupancy="68.86" meanMaxJamLengthInVehicles="6.00" meanMaxJamLengthInMeters="39.58" maxJamLengthInVehicles="6" maxJamLengthInMeters="39.58" jamLengthInVehiclesSum="600" jamLengthInMetersSum="3957.52" meanHaltingDuration="147.67" maxHaltingDuration="153.00" haltingDurationSum="886.00" meanIntervalHaltingDuration="100.00" maxIntervalHaltingDuration="100.00" intervalHaltingDurationSum="600.00" startedHalts="0.00" meanVehicleNumber="6.00" maxVehicleNumber="6" />
   <interval begin="25800.00" end="25900.00" id="e2_L197#2_1_1" sampledSeconds="592.62" nVehEntered="1" nVehLeft="1" nVehSeen="7" meanSpeed="0.08" meanTimeLoss="84.10" meanOccupancy="66.86" maxOccupancy="68.86" meanMaxJamLengthInVehicles="5.70" meanMaxJamLengthInMeters="37.66" maxJamLengthInVehicles="6" maxJamLengthInMeters="40.68" jamLengthInVehiclesSum="573" jamLengthInMetersSum="3778.56" meanHaltingDuration="112.77" maxHaltingDuration="204.00" haltingDurationSum="1466.00" meanIntervalHaltingDuration="44.62" maxIntervalHaltingDuration="58.00" intervalHaltingDurationSum="580.00" startedHalts="7.00" meanVehicleNumber="5.94" maxVehicleNumber="6" />