<?xml version="1.0" encoding="UTF-8"?>

<!-- generated on Sun Feb 17 15:57:00 2019 by 
<configuration xmlns:xsi="http://www.w3.org/2001/XMLSchema-instance" xsi:noNamespaceSchemaLocation="http://sumo.dlr.de/xsd/Configuration.xsd">

    <input>
        <net-file value="/home/sda/Documents/sumo-sathorn-ray/models/sathorn-morning/sathorn_w_fixed_20160404.net.xml"/>
        <route-files value="/home/sda/Documents/sumo-sathorn-ray/models/sathorn-morning/Great-route/sathorn_w_20160422edit2.rou.xml"/>
        <additional-files value="/home/sda/Documents/sumo-sathorn-ray/models/sathorn-morning/sathon_wide_tls_20160418_edited.add.xml,/home/sda/Documents/sumo-sathorn-ray/detectors/sathorn_w_detectors.add.xml"/>
    </input>

    <time>
        <begin value="21600"/>
        <end value="32400"/>
        <step-length value="1"/>
    </time>

    <processing>
        <no-internal-links value="true"/>
        <ignore-junction-blocker value="-1"/>
        <time-to-teleport value="-1"/>
        <eager-insert value="true"/>
        <time-to-impatience value="300"/>
    </processing>

    <report>
        <no-warnings value="true"/>
    </report>

    <random_number>
        <random value="false"/>
        <seed value="20"/>
    </random_number>

    <gui_only>
        <gui-settings-file value="/home/sda/Documents/sumo-sathorn-ray/gui-settings/gui-settings-file-surasak.xml"/>
        <quit-on-end value="true"/>
        <start value="true"/>
        <tracker-interval value="1"/>
    </gui_only>

</configuration>
-->

<detector xmlns:xsi="http://www.w3.org/2001/XMLSchema-instance" xsi:noNamespaceSchemaLocation="http://sumo.dlr.de/xsd/det_e2_file.xsd">
   <interval begin="21600.00" end="21700.00" id="e2_L193#2_0_1" sampledSeconds="0.00" nVehEntered="0" nVehLeft="0" nVehSeen="0" meanSpeed="-1.00" meanTimeLoss="-1.00" meanOccupancy="0.00" maxOccupancy="0.00" meanMaxJamLengthInVehicles="0.00" meanMaxJamLengthInMeters="0.00" maxJamLengthInVehicles="0" maxJamLengthInMeters="0.00" jamLengthInVehiclesSum="0" jamLengthInMetersSum="0.00" meanHaltingDuration="0.00" maxHaltingDuration="0.00" haltingDurationSum="0.00" meanIntervalHaltingDuration="0.00" maxIntervalHaltingDuration="0.00" intervalHaltingDurationSum="0.00" startedHalts="0.00" meanVehicleNumber="0.00" maxVehicleNumber="0" />
   <interval begin="21700.00" end="21800.00" id="e2_L193#2_0_1" sampledSeconds="0.00" nVehEntered="0" nVehLeft="0" nVehSeen="0" meanSpeed="-1.00" meanTimeLoss="-1.00" meanOccupancy="0.00" maxOccupancy="0.00" meanMaxJamLengthInVehicles="0.00" meanMaxJamLengthInMeters="0.00" maxJamLengthInVehicles="0" maxJamLengthInMeters="0.00" jamLengthInVehiclesSum="0" jamLengthInMetersSum="0.00" meanHaltingDuration="0.00" maxHaltingDuration="0.00" haltingDurationSum="0.00" meanIntervalHaltingDuration="0.00" maxIntervalHaltingDuration="0.00" intervalHaltingDurationSum="0.00" startedHalts="0.00" meanVehicleNumber="0.00" maxVehicleNumber="0" />
   <interval begin="21800.00" end="21900.00" id="e2_L193#2_0_1" sampledSeconds="109.88" nVehEntered="14" nVehLeft="12" nVehSeen="14" meanSpeed="11.05" meanTimeLoss="0.91" meanOccupancy="5.13" maxOccupancy="22.58" meanMaxJamLengthInVehicles="0.00" meanMaxJamLengthInMeters="0.00" maxJamLengthInVehicles="0" maxJamLengthInMeters="0.00" jamLengthInVehiclesSum="0" jamLengthInMetersSum="0.00" meanHaltingDuration="0.00" maxHaltingDuration="0.00" haltingDurationSum="0.00" meanIntervalHaltingDuration="0.00" maxIntervalHaltingDuration="0.00" intervalHaltingDurationSum="0.00" startedHalts="0.00" meanVehicleNumber="1.24" maxVehicleNumber="5" />
   <interval begin="21900.00" end="22000.00" id="e2_L193#2_0_1" sampledSeconds="178.10" nVehEntered="22" nVehLeft="21" nVehSeen="24" meanSpeed="11.43" meanTimeLoss="0.58" meanOccupancy="8.08" maxOccupancy="18.75" meanMaxJamLengthInVehicles="0.00" meanMaxJamLengthInMeters="0.00" maxJamLengthInVehicles="0" maxJamLengthInMeters="0.00" jamLengthInVehiclesSum="0" jamLengthInMetersSum="0.00" meanHaltingDuration="0.00" maxHaltingDuration="0.00" haltingDurationSum="0.00" meanIntervalHaltingDuration="0.00" maxIntervalHaltingDuration="0.00" intervalHaltingDurationSum="0.00" startedHalts="0.00" meanVehicleNumber="1.98" maxVehicleNumber="5" />
   <interval begin="22000.00" end="22100.00" id="e2_L193#2_0_1" sampledSeconds="182.13" nVehEntered="23" nVehLeft="23" nVehSeen="26" meanSpeed="11.70" meanTimeLoss="0.43" meanOccupancy="8.19" maxOccupancy="18.75" meanMaxJamLengthInVehicles="0.00" meanMaxJamLengthInMeters="0.00" maxJamLengthInVehicles="0" maxJamLengthInMeters="0.00" jamLengthInVehiclesSum="0" jamLengthInMetersSum="0.00" meanHaltingDuration="0.00" maxHaltingDuration="0.00" haltingDurationSum="0.00" meanIntervalHaltingDuration="0.00" maxIntervalHaltingDuration="0.00" intervalHaltingDurationSum="0.00" startedHalts="0.00" meanVehicleNumber="1.97" maxVehicleNumber="4" />
   <interval begin="22100.00" end="22200.00" id="e2_L193#2_0_1" sampledSeconds="229.60" nVehEntered="22" nVehLeft="25" nVehSeen="25" meanSpeed="10.22" meanTimeLoss="1.68" meanOccupancy="10.26" maxOccupancy="21.12" meanMaxJamLengthInVehicles="0.00" meanMaxJamLengthInMeters="0.00" maxJamLengthInVehicles="0" maxJamLengthInMeters="0.00" jamLengthInVehiclesSum="0" jamLengthInMetersSum="0.00" meanHaltingDuration="1.00" maxHaltingDuration="1.00" haltingDurationSum="2.00" meanIntervalHaltingDuration="1.00" maxIntervalHaltingDuration="1.00" intervalHaltingDurationSum="2.00" startedHalts="2.00" meanVehicleNumber="2.49" maxVehicleNumber="5" />
   <interval begin="22200.00" end="22300.00" id="e2_L193#2_0_1" sampledSeconds="332.48" nVehEntered="30" nVehLeft="22" nVehSeen="30" meanSpeed="7.43" meanTimeLoss="4.46" meanOccupancy="15.43" maxOccupancy="42.58" meanMaxJamLengthInVehicles="0.84" meanMaxJamLengthInMeters="5.32" maxJamLengthInVehicles="7" maxJamLengthInMeters="47.13" jamLengthInVehiclesSum="84" jamLengthInMetersSum="532.46" meanHaltingDuration="9.86" maxHaltingDuration="22.00" haltingDurationSum="69.00" meanIntervalHaltingDuration="9.86" maxIntervalHaltingDuration="22.00" intervalHaltingDurationSum="69.00" startedHalts="8.00" meanVehicleNumber="3.54" maxVehicleNumber="10" />
   <interval begin="22300.00" end="22400.00" id="e2_L193#2_0_1" sampledSeconds="800.86" nVehEntered="16" nVehLeft="13" nVehSeen="24" meanSpeed="0.71" meanTimeLoss="31.47" meanOccupancy="37.81" maxOccupancy="51.41" meanMaxJamLengthInVehicles="6.83" meanMaxJamLengthInMeters="47.05" maxJamLengthInVehicles="10" maxJamLengthInMeters="72.45" jamLengthInVehiclesSum="714" jamLengthInMetersSum="4906.49" meanHaltingDuration="30.48" maxHaltingDuration="97.00" haltingDurationSum="762.00" meanIntervalHaltingDuration="28.64" maxIntervalHaltingDuration="85.00" intervalHaltingDurationSum="716.00" startedHalts="21.00" meanVehicleNumber="8.09" maxVehicleNumber="11" />
   <interval begin="22400.00" end="22500.00" id="e2_L193#2_0_1" sampledSeconds="1442.89" nVehEntered="8" nVehLeft="4" nVehSeen="19" meanSpeed="0.08" meanTimeLoss="75.48" meanOccupancy="64.54" maxOccupancy="66.14" meanMaxJamLengthInVehicles="14.20" meanMaxJamLengthInMeters="94.07" maxJamLengthInVehicles="15" maxJamLengthInMeters="98.39" jamLengthInVehiclesSum="1420" jamLengthInMetersSum="9407.03" meanHaltingDuration="101.47" maxHaltingDuration="116.00" haltingDurationSum="1522.00" meanIntervalHaltingDuration="95.00" maxIntervalHaltingDuration="100.00" intervalHaltingDurationSum="1425.00" startedHalts="6.00" meanVehicleNumber="14.46" maxVehicleNumber="15" />
   <interval begin="22500.00" end="22600.00" id="e2_L193#2_0_1" sampledSeconds="1500.00" nVehEntered="0" nVehLeft="0" nVehSeen="15" meanSpeed="0.00" meanTimeLoss="100.00" meanOccupancy="66.14" maxOccupancy="66.14" meanMaxJamLengthInVehicles="15.00" meanMaxJamLengthInMeters="98.39" maxJamLengthInVehicles="15" maxJamLengthInMeters="98.39" jamLengthInVehiclesSum="1500" jamLengthInMetersSum="9838.67" meanHaltingDuration="201.47" maxHaltingDuration="216.00" haltingDurationSum="3022.00" meanIntervalHaltingDuration="100.00" maxIntervalHaltingDuration="100.00" intervalHaltingDurationSum="1500.00" startedHalts="0.00" meanVehicleNumber="15.00" maxVehicleNumber="15" />
   <interval begin="22600.00" end="22700.00" id="e2_L193#2_0_1" sampledSeconds="1500.00" nVehEntered="0" nVehLeft="0" nVehSeen="15" meanSpeed="0.00" meanTimeLoss="100.00" meanOccupancy="66.14" maxOccupancy="66.14" meanMaxJamLengthInVehicles="15.00" meanMaxJamLengthInMeters="98.39" maxJamLengthInVehicles="15" maxJamLengthInMeters="98.39" jamLengthInVehiclesSum="1500" jamLengthInMetersSum="9838.67" meanHaltingDuration="301.47" maxHaltingDuration="316.00" haltingDurationSum="4522.00" meanIntervalHaltingDuration="100.00" maxIntervalHaltingDuration="100.00" intervalHaltingDurationSum="1500.00" startedHalts="0.00" meanVehicleNumber="15.00" maxVehicleNumber="15" />
   <interval begin="22700.00" end="22800.00" id="e2_L193#2_0_1" sampledSeconds="1500.00" nVehEntered="0" nVehLeft="0" nVehSeen="15" meanSpeed="0.00" meanTimeLoss="100.00" meanOccupancy="66.14" maxOccupancy="66.14" meanMaxJamLengthInVehicles="15.00" meanMaxJamLengthInMeters="98.39" maxJamLengthInVehicles="15" maxJamLengthInMeters="98.39" jamLengthInVehiclesSum="1500" jamLengthInMetersSum="9838.67" meanHaltingDuration="401.47" maxHaltingDuration="416.00" haltingDurationSum="6022.00" meanIntervalHaltingDuration="100.00" maxIntervalHaltingDuration="100.00" intervalHaltingDurationSum="1500.00" startedHalts="0.00" meanVehicleNumber="15.00" maxVehicleNumber="15" />
   <interval begin="22800.00" end="22900.00" id="e2_L193#2_0_1" sampledSeconds="1500.00" nVehEntered="0" nVehLeft="0" nVehSeen="15" meanSpeed="0.00" meanTimeLoss="100.00" meanOccupancy="66.14" maxOccupancy="66.14" meanMaxJamLengthInVehicles="15.00" meanMaxJamLengthInMeters="98.39" maxJamLengthInVehicles="15" maxJamLengthInMeters="98.39" jamLengthInVehiclesSum="1500" jamLengthInMetersSum="9838.67" meanHaltingDuration="501.47" maxHaltingDuration="516.00" haltingDurationSum="7522.00" meanIntervalHaltingDuration="100.00" maxIntervalHaltingDuration="100.00" intervalHaltingDurationSum="1500.00" startedHalts="0.00" meanVehicleNumber="15.00" maxVehicleNumber="15" />
   <interval begin="22900.00" end="23000.00" id="e2_L193#2_0_1" sampledSeconds="1500.00" nVehEntered="0" nVehLeft="0" nVehSeen="15" meanSpeed="0.00" meanTimeLoss="100.00" meanOccupancy="66.14" maxOccupancy="66.14" meanMaxJamLengthInVehicles="15.00" meanMaxJamLengthInMeters="98.39" maxJamLengthInVehicles="15" maxJamLengthInMeters="98.39" jamLengthInVehiclesSum="1500" jamLengthInMetersSum="9838.67" meanHaltingDuration="601.47" maxHaltingDuration="616.00" haltingDurationSum="9022.00" meanIntervalHaltingDuration="100.00" maxIntervalHaltingDuration="100.00" intervalHaltingDurationSum="1500.00" startedHalts="0.00" meanVehicleNumber="15.00" maxVehicleNumber="15" />
   <interval begin="23000.00" end="23100.00" id="e2_L193#2_0_1" sampledSeconds="1500.00" nVehEntered="0" nVehLeft="0" nVehSeen="15" meanSpeed="0.00" meanTimeLoss="100.00" meanOccupancy="66.14" maxOccupancy="66.14" meanMaxJamLengthInVehicles="15.00" meanMaxJamLengthInMeters="98.39" maxJamLengthInVehicles="15" maxJamLengthInMeters="98.39" jamLengthInVehiclesSum="1500" jamLengthInMetersSum="9838.67" meanHaltingDuration="701.47" maxHaltingDuration="716.00" haltingDurationSum="10522.00" meanIntervalHaltingDuration="100.00" maxIntervalHaltingDuration="100.00" intervalHaltingDurationSum="1500.00" startedHalts="0.00" meanVehicleNumber="15.00" maxVehicleNumber="15" />
   <interval begin="23100.00" end="23200.00" id="e2_L193#2_0_1" sampledSeconds="1500.00" nVehEntered="0" nVehLeft="0" nVehSeen="15" meanSpeed="0.00" meanTimeLoss="100.00" meanOccupancy="66.14" maxOccupancy="66.14" meanMaxJamLengthInVehicles="15.00" meanMaxJamLengthInMeters="98.39" maxJamLengthInVehicles="15" maxJamLengthInMeters="98.39" jamLengthInVehiclesSum="1500" jamLengthInMetersSum="9838.67" meanHaltingDuration="801.47" maxHaltingDuration="816.00" haltingDurationSum="12022.00" meanIntervalHaltingDuration="100.00" maxIntervalHaltingDuration="100.00" intervalHaltingDurationSum="1500.00" startedHalts="0.00" meanVehicleNumber="15.00" maxVehicleNumber="15" />
   <interval begin="23200.00" end="23300.00" id="e2_L193#2_0_1" sampledSeconds="1500.00" nVehEntered="0" nVehLeft="0" nVehSeen="15" meanSpeed="0.00" meanTimeLoss="100.00" meanOccupancy="66.14" maxOccupancy="66.14" meanMaxJamLengthInVehicles="15.00" meanMaxJamLengthInMeters="98.39" maxJamLengthInVehicles="15" maxJamLengthInMeters="98.39" jamLengthInVehiclesSum="1500" jamLengthInMetersSum="9838.67" meanHaltingDuration="901.47" maxHaltingDuration="916.00" haltingDurationSum="13522.00" meanIntervalHaltingDuration="100.00" maxIntervalHaltingDuration="100.00" intervalHaltingDurationSum="1500.00" startedHalts="0.00" meanVehicleNumber="15.00" maxVehicleNumber="15" />
   <interval begin="23300.00" end="23400.00" id="e2_L193#2_0_1" sampledSeconds="1500.00" nVehEntered="0" nVehLeft="0" nVehSeen="15" meanSpeed="0.00" meanTimeLoss="100.00" meanOccupancy="66.14" maxOccupancy="66.14" meanMaxJamLengthInVehicles="15.00" meanMaxJamLengthInMeters="98.39" maxJamLengthInVehicles="15" maxJamLengthInMeters="98.39" jamLengthInVehiclesSum="1500" jamLengthInMetersSum="9838.67" meanHaltingDuration="1001.47" maxHaltingDuration="1016.00" haltingDurationSum="15022.00" meanIntervalHaltingDuration="100.00" maxIntervalHaltingDuration="100.00" intervalHaltingDurationSum="1500.00" startedHalts="0.00" meanVehicleNumber="15.00" maxVehicleNumber="15" />
   <interval begin="23400.00" end="23500.00" id="e2_L193#2_0_1" sampledSeconds="1497.46" nVehEntered="0" nVehLeft="2" nVehSeen="15" meanSpeed="0.02" meanTimeLoss="99.69" meanOccupancy="65.87" maxOccupancy="66.14" meanMaxJamLengthInVehicles="14.86" meanMaxJamLengthInMeters="97.57" maxJamLengthInVehicles="15" maxJamLengthInMeters="100.13" jamLengthInVehiclesSum="1488" jamLengthInMetersSum="9766.01" meanHaltingDuration="869.16" maxHaltingDuration="1113.00" haltingDurationSum="16514.00" meanIntervalHaltingDuration="78.53" maxIntervalHaltingDuration="100.00" intervalHaltingDurationSum="1492.00" startedHalts="4.00" meanVehicleNumber="14.98" maxVehicleNumber="15" />
   <interval begin="23500.00" end="23600.00" id="e2_L193#2_0_1" sampledSeconds="1430.81" nVehEntered="8" nVehLeft="5" nVehSeen="21" meanSpeed="0.34" meanTimeLoss="66.24" meanOccupancy="64.25" maxOccupancy="70.83" meanMaxJamLengthInVehicles="12.11" meanMaxJamLengthInMeters="76.33" maxJamLengthInVehicles="16" maxJamLengthInMeters="98.39" jamLengthInVehiclesSum="1231" jamLengthInMetersSum="7735.40" meanHaltingDuration="247.00" maxHaltingDuration="1115.00" haltingDurationSum="13338.00" meanIntervalHaltingDuration="23.50" maxIntervalHaltingDuration="82.00" intervalHaltingDurationSum="1269.00" startedHalts="42.00" meanVehicleNumber="14.34" maxVehicleNumber="16" />
   <interval begin="23600.00" end="23700.00" id="e2_L193#2_0_1" sampledSeconds="1600.00" nVehEntered="0" nVehLeft="0" nVehSeen="16" meanSpeed="0.00" meanTimeLoss="100.00" meanOccupancy="70.83" maxOccupancy="70.83" meanMaxJamLengthInVehicles="16.00" meanMaxJamLengthInMeters="98.39" maxJamLengthInVehicles="16" maxJamLengthInMeters="98.39" jamLengthInVehiclesSum="1600" jamLengthInMetersSum="9838.63" meanHaltingDuration="170.31" maxHaltingDuration="182.00" haltingDurationSum="2725.00" meanIntervalHaltingDuration="100.00" maxIntervalHaltingDuration="100.00" intervalHaltingDurationSum="1600.00" startedHalts="0.00" meanVehicleNumber="16.00" maxVehicleNumber="16" />
   <interval begin="23700.00" end="23800.00" id="e2_L193#2_0_1" sampledSeconds="1600.00" nVehEntered="0" nVehLeft="0" nVehSeen="16" meanSpeed="0.00" meanTimeLoss="100.00" meanOccupancy="70.83" maxOccupancy="70.83" meanMaxJamLengthInVehicles="16.00" meanMaxJamLengthInMeters="98.39" maxJamLengthInVehicles="16" maxJamLengthInMeters="98.39" jamLengthInVehiclesSum="1600" jamLengthInMetersSum="9838.63" meanHaltingDuration="270.31" maxHaltingDuration="282.00" haltingDurationSum="4325.00" meanIntervalHaltingDuration="100.00" maxIntervalHaltingDuration="100.00" intervalHaltingDurationSum="1600.00" startedHalts="0.00" meanVehicleNumber="16.00" maxVehicleNumber="16" />
   <interval begin="23800.00" end="23900.00" id="e2_L193#2_0_1" sampledSeconds="1590.42" nVehEntered="0" nVehLeft="3" nVehSeen="16" meanSpeed="0.04" meanTimeLoss="99.11" meanOccupancy="70.20" maxOccupancy="70.83" meanMaxJamLengthInVehicles="15.66" meanMaxJamLengthInMeters="96.25" maxJamLengthInVehicles="16" maxJamLengthInMeters="99.48" jamLengthInVehiclesSum="1568" jamLengthInMetersSum="9633.97" meanHaltingDuration="280.86" maxHaltingDuration="376.00" haltingDurationSum="5898.00" meanIntervalHaltingDuration="74.90" maxIntervalHaltingDuration="100.00" intervalHaltingDurationSum="1573.00" startedHalts="5.00" meanVehicleNumber="15.91" maxVehicleNumber="16" />
   <interval begin="23900.00" end="24000.00" id="e2_L193#2_0_1" sampledSeconds="1765.74" nVehEntered="7" nVehLeft="1" nVehSeen="20" meanSpeed="0.18" meanTimeLoss="87.05" meanOccupancy="79.61" maxOccupancy="84.89" meanMaxJamLengthInVehicles="16.06" meanMaxJamLengthInMeters="86.40" maxJamLengthInVehicles="19" maxJamLengthInMeters="98.39" jamLengthInVehiclesSum="1655" jamLengthInMetersSum="8881.51" meanHaltingDuration="96.08" maxHaltingDuration="375.00" haltingDurationSum="4996.00" meanIntervalHaltingDuration="32.54" maxIntervalHaltingDuration="96.00" intervalHaltingDurationSum="1692.00" startedHalts="43.00" meanVehicleNumber="17.69" maxVehicleNumber="19" />
   <interval begin="24000.00" end="24100.00" id="e2_L193#2_0_1" sampledSeconds="1882.60" nVehEntered="3" nVehLeft="3" nVehSeen="22" meanSpeed="0.13" meanTimeLoss="84.71" meanOccupancy="85.15" maxOccupancy="89.58" meanMaxJamLengthInVehicles="17.54" meanMaxJamLengthInMeters="89.64" maxJamLengthInVehicles="20" maxJamLengthInMeters="100.93" jamLengthInVehiclesSum="1838" jamLengthInMetersSum="9373.35" meanHaltingDuration="85.60" maxHaltingDuration="185.00" haltingDurationSum="3424.00" meanIntervalHaltingDuration="45.85" maxIntervalHaltingDuration="100.00" intervalHaltingDurationSum="1834.00" startedHalts="23.00" meanVehicleNumber="18.84" maxVehicleNumber="20" />
   <interval begin="24100.00" end="24200.00" id="e2_L193#2_0_1" sampledSeconds="1898.69" nVehEntered="1" nVehLeft="1" nVehSeen="20" meanSpeed="0.07" meanTimeLoss="94.41" meanOccupancy="88.71" maxOccupancy="89.06" meanMaxJamLengthInVehicles="18.54" meanMaxJamLengthInMeters="93.11" maxJamLengthInVehicles="19" maxJamLengthInMeters="100.54" jamLengthInVehiclesSum="1890" jamLengthInMetersSum="9525.52" meanHaltingDuration="165.30" maxHaltingDuration="282.00" haltingDurationSum="3306.00" meanIntervalHaltingDuration="90.50" maxIntervalHaltingDuration="100.00" intervalHaltingDurationSum="1810.00" startedHalts="2.00" meanVehicleNumber="18.99" maxVehicleNumber="19" />
   <interval begin="24200.00" end="24300.00" id="e2_L193#2_0_1" sampledSeconds="2078.97" nVehEntered="3" nVehLeft="1" nVehSeen="22" meanSpeed="0.03" meanTimeLoss="94.31" meanOccupancy="94.07" maxOccupancy="94.27" meanMaxJamLengthInVehicles="20.04" meanMaxJamLengthInMeters="94.67" maxJamLengthInVehicles="21" maxJamLengthInMeters="98.39" jamLengthInVehiclesSum="2062" jamLengthInMetersSum="9739.59" meanHaltingDuration="195.88" maxHaltingDuration="284.00" haltingDurationSum="5093.00" meanIntervalHaltingDuration="79.61" maxIntervalHaltingDuration="100.00" intervalHaltingDurationSum="2070.00" startedHalts="9.00" meanVehicleNumber="20.80" maxVehicleNumber="21" />
   <interval begin="24300.00" end="24400.00" id="e2_L193#2_0_1" sampledSeconds="2100.00" nVehEntered="0" nVehLeft="0" nVehSeen="21" meanSpeed="0.00" meanTimeLoss="100.00" meanOccupancy="94.27" maxOccupancy="94.27" meanMaxJamLengthInVehicles="21.00" meanMaxJamLengthInMeters="98.39" maxJamLengthInVehicles="21" maxJamLengthInMeters="98.39" jamLengthInVehiclesSum="2100" jamLengthInMetersSum="9838.65" meanHaltingDuration="294.71" maxHaltingDuration="364.00" haltingDurationSum="6189.00" meanIntervalHaltingDuration="100.00" maxIntervalHaltingDuration="100.00" intervalHaltingDurationSum="2100.00" startedHalts="0.00" meanVehicleNumber="21.00" maxVehicleNumber="21" />
   <interval begin="24400.00" end="24500.00" id="e2_L193#2_0_1" sampledSeconds="2100.00" nVehEntered="0" nVehLeft="0" nVehSeen="21" meanSpeed="0.00" meanTimeLoss="100.00" meanOccupancy="94.27" maxOccupancy="94.27" meanMaxJamLengthInVehicles="21.00" meanMaxJamLengthInMeters="98.39" maxJamLengthInVehicles="21" maxJamLengthInMeters="98.39" jamLengthInVehiclesSum="2100" jamLengthInMetersSum="9838.65" meanHaltingDuration="394.71" maxHaltingDuration="464.00" haltingDurationSum="8289.00" meanIntervalHaltingDuration="100.00" maxIntervalHaltingDuration="100.00" intervalHaltingDurationSum="2100.00" startedHalts="0.00" meanVehicleNumber="21.00" maxVehicleNumber="21" />
   <interval begin="24500.00" end="24600.00" id="e2_L193#2_0_1" sampledSeconds="2100.00" nVehEntered="0" nVehLeft="0" nVehSeen="21" meanSpeed="0.00" meanTimeLoss="100.00" meanOccupancy="94.27" maxOccupancy="94.27" meanMaxJamLengthInVehicles="21.00" meanMaxJamLengthInMeters="98.39" maxJamLengthInVehicles="21" maxJamLengthInMeters="98.39" jamLengthInVehiclesSum="2100" jamLengthInMetersSum="9838.65" meanHaltingDuration="494.71" maxHaltingDuration="564.00" haltingDurationSum="10389.00" meanIntervalHaltingDuration="100.00" maxIntervalHaltingDuration="100.00" intervalHaltingDurationSum="2100.00" startedHalts="0.00" meanVehicleNumber="21.00" maxVehicleNumber="21" />
   <interval begin="24600.00" end="24700.00" id="e2_L193#2_0_1" sampledSeconds="2100.00" nVehEntered="0" nVehLeft="0" nVehSeen="21" meanSpeed="0.00" meanTimeLoss="100.00" meanOccupancy="94.27" maxOccupancy="94.27" meanMaxJamLengthInVehicles="21.00" meanMaxJamLengthInMeters="98.39" maxJamLengthInVehicles="21" maxJamLengthInMeters="98.39" jamLengthInVehiclesSum="2100" jamLengthInMetersSum="9838.65" meanHaltingDuration="594.71" maxHaltingDuration="664.00" haltingDurationSum="12489.00" meanIntervalHaltingDuration="100.00" maxIntervalHaltingDuration="100.00" intervalHaltingDurationSum="2100.00" startedHalts="0.00" meanVehicleNumber="21.00" maxVehicleNumber="21" />
   <interval begin="24700.00" end="24800.00" id="e2_L193#2_0_1" sampledSeconds="2100.00" nVehEntered="0" nVehLeft="0" nVehSeen="21" meanSpeed="0.00" meanTimeLoss="100.00" meanOccupancy="94.27" maxOccupancy="94.27" meanMaxJamLengthInVehicles="21.00" meanMaxJamLengthInMeters="98.39" maxJamLengthInVehicles="21" maxJamLengthInMeters="98.39" jamLengthInVehiclesSum="2100" jamLengthInMetersSum="9838.65" meanHaltingDuration="694.71" maxHaltingDuration="764.00" haltingDurationSum="14589.00" meanIntervalHaltingDuration="100.00" maxIntervalHaltingDuration="100.00" intervalHaltingDurationSum="2100.00" startedHalts="0.00" meanVehicleNumber="21.00" maxVehicleNumber="21" />
   <interval begin="24800.00" end="24900.00" id="e2_L193#2_0_1" sampledSeconds="2100.00" nVehEntered="0" nVehLeft="0" nVehSeen="21" meanSpeed="0.01" meanTimeLoss="99.94" meanOccupancy="94.23" maxOccupancy="94.45" meanMaxJamLengthInVehicles="21.00" meanMaxJamLengthInMeters="99.11" maxJamLengthInVehicles="21" maxJamLengthInMeters="99.29" jamLengthInVehiclesSum="2100" jamLengthInMetersSum="9911.14" meanHaltingDuration="794.71" maxHaltingDuration="864.00" haltingDurationSum="16689.00" meanIntervalHaltingDuration="100.00" maxIntervalHaltingDuration="100.00" intervalHaltingDurationSum="2100.00" startedHalts="0.00" meanVehicleNumber="21.00" maxVehicleNumber="21" />
   <interval begin="24900.00" end="25000.00" id="e2_L193#2_0_1" sampledSeconds="2100.00" nVehEntered="0" nVehLeft="0" nVehSeen="21" meanSpeed="0.00" meanTimeLoss="100.00" meanOccupancy="94.45" maxOccupancy="94.45" meanMaxJamLengthInVehicles="21.00" meanMaxJamLengthInMeters="99.29" maxJamLengthInVehicles="21" maxJamLengthInMeters="99.29" jamLengthInVehiclesSum="2100" jamLengthInMetersSum="9928.68" meanHaltingDuration="894.71" maxHaltingDuration="964.00" haltingDurationSum="18789.00" meanIntervalHaltingDuration="100.00" maxIntervalHaltingDuration="100.00" intervalHaltingDurationSum="2100.00" startedHalts="0.00" meanVehicleNumber="21.00" maxVehicleNumber="21" />
   <interval begin="25000.00" end="25100.00" id="e2_L193#2_0_1" sampledSeconds="2100.00" nVehEntered="0" nVehLeft="0" nVehSeen="21" meanSpeed="0.00" meanTimeLoss="100.00" meanOccupancy="94.45" maxOccupancy="94.45" meanMaxJamLengthInVehicles="21.00" meanMaxJamLengthInMeters="99.29" maxJamLengthInVehicles="21" maxJamLengthInMeters="99.29" jamLengthInVehiclesSum="2100" jamLengthInMetersSum="9928.68" meanHaltingDuration="994.71" maxHaltingDuration="1064.00" haltingDurationSum="20889.00" meanIntervalHaltingDuration="100.00" maxIntervalHaltingDuration="100.00" intervalHaltingDurationSum="2100.00" startedHalts="0.00" meanVehicleNumber="21.00" maxVehicleNumber="21" />
   <interval begin="25100.00" end="25200.00" id="e2_L193#2_0_1" sampledSeconds="2100.00" nVehEntered="0" nVehLeft="0" nVehSeen="21" meanSpeed="0.00" meanTimeLoss="100.00" meanOccupancy="94.45" maxOccupancy="94.45" meanMaxJamLengthInVehicles="21.00" meanMaxJamLengthInMeters="99.29" maxJamLengthInVehicles="21" maxJamLengthInMeters="99.29" jamLengthInVehiclesSum="2100" jamLengthInMetersSum="9928.68" meanHaltingDuration="1094.71" maxHaltingDuration="1164.00" haltingDurationSum="22989.00" meanIntervalHaltingDuration="100.00" maxIntervalHaltingDuration="100.00" intervalHaltingDurationSum="2100.00" startedHalts="0.00" meanVehicleNumber="21.00" maxVehicleNumber="21" />
   <interval begin="25200.00" end="25300.00" id="e2_L193#2_0_1" sampledSeconds="2100.00" nVehEntered="0" nVehLeft="0" nVehSeen="21" meanSpeed="0.00" meanTimeLoss="100.00" meanOccupancy="94.45" maxOccupancy="94.45" meanMaxJamLengthInVehicles="21.00" meanMaxJamLengthInMeters="99.29" maxJamLengthInVehicles="21" maxJamLengthInMeters="99.29" jamLengthInVehiclesSum="2100" jamLengthInMetersSum="9928.68" meanHaltingDuration="1194.71" maxHaltingDuration="1264.00" haltingDurationSum="25089.00" meanIntervalHaltingDuration="100.00" maxIntervalHaltingDuration="100.00" intervalHaltingDurationSum="2100.00" startedHalts="0.00" meanVehicleNumber="21.00" maxVehicleNumber="21" />
   <interval begin="25300.00" end="25400.00" id="e2_L193#2_0_1" sampledSeconds="2100.00" nVehEntered="0" nVehLeft="0" nVehSeen="21" meanSpeed="0.00" meanTimeLoss="100.00" meanOccupancy="94.45" maxOccupancy="94.45" meanMaxJamLengthInVehicles="21.00" meanMaxJamLengthInMeters="99.29" maxJamLengthInVehicles="21" maxJamLengthInMeters="99.29" jamLengthInVehiclesSum="2100" jamLengthInMetersSum="9928.69" meanHaltingDuration="1294.71" maxHaltingDuration="1364.00" haltingDurationSum="27189.00" meanIntervalHaltingDuration="100.00" maxIntervalHaltingDuration="100.00" intervalHaltingDurationSum="2100.00" startedHalts="0.00" meanVehicleNumber="21.00" maxVehicleNumber="21" />
   <interval begin="25400.00" end="25500.00" id="e2_L193#2_0_1" sampledSeconds="2086.52" nVehEntered="0" nVehLeft="1" nVehSeen="21" meanSpeed="0.03" meanTimeLoss="99.08" meanOccupancy="93.76" maxOccupancy="94.45" meanMaxJamLengthInVehicles="20.87" meanMaxJamLengthInMeters="99.32" maxJamLengthInVehicles="21" maxJamLengthInMeters="103.73" jamLengthInVehiclesSum="2087" jamLengthInMetersSum="9932.33" meanHaltingDuration="1391.25" maxHaltingDuration="1463.00" haltingDurationSum="27825.00" meanIntervalHaltingDuration="100.00" maxIntervalHaltingDuration="100.00" intervalHaltingDurationSum="2000.00" startedHalts="0.00" meanVehicleNumber="20.87" maxVehicleNumber="21" />
   <interval begin="25500.00" end="25600.00" id="e2_L193#2_0_1" sampledSeconds="1737.21" nVehEntered="17" nVehLeft="17" nVehSeen="37" meanSpeed="0.70" meanTimeLoss="44.31" meanOccupancy="79.61" maxOccupancy="90.85" meanMaxJamLengthInVehicles="11.64" meanMaxJamLengthInMeters="60.37" maxJamLengthInVehicles="20" maxJamLengthInMeters="101.72" jamLengthInVehiclesSum="1380" jamLengthInMetersSum="7143.17" meanHaltingDuration="281.49" maxHaltingDuration="1502.00" haltingDurationSum="29275.00" meanIntervalHaltingDuration="13.94" maxIntervalHaltingDuration="49.00" intervalHaltingDurationSum="1450.00" startedHalts="89.00" meanVehicleNumber="17.47" maxVehicleNumber="20" />
   <interval begin="25600.00" end="25700.00" id="e2_L193#2_0_1" sampledSeconds="1707.90" nVehEntered="10" nVehLeft="16" nVehSeen="30" meanSpeed="0.50" meanTimeLoss="54.63" meanOccupancy="76.90" maxOccupancy="89.75" meanMaxJamLengthInVehicles="12.63" meanMaxJamLengthInMeters="68.86" maxJamLengthInVehicles="20" maxJamLengthInMeters="102.99" jamLengthInVehiclesSum="1438" jamLengthInMetersSum="7745.56" meanHaltingDuration="19.88" maxHaltingDuration="94.00" haltingDurationSum="1749.00" meanIntervalHaltingDuration="15.57" maxIntervalHaltingDuration="94.00" intervalHaltingDurationSum="1370.00" startedHalts="76.00" meanVehicleNumber="17.19" maxVehicleNumber="20" />
   <interval begin="25700.00" end="25800.00" id="e2_L193#2_0_1" sampledSeconds="1951.72" nVehEntered="11" nVehLeft="4" nVehSeen="25" meanSpeed="0.25" meanTimeLoss="76.49" meanOccupancy="88.84" maxOccupancy="94.27" meanMaxJamLengthInVehicles="16.80" meanMaxJamLengthInMeters="80.44" maxJamLengthInVehicles="21" maxJamLengthInMeters="98.39" jamLengthInVehiclesSum="1758" jamLengthInMetersSum="8427.17" meanHaltingDuration="28.23" maxHaltingDuration="99.00" haltingDurationSum="2004.00" meanIntervalHaltingDuration="25.58" maxIntervalHaltingDuration="90.00" intervalHaltingDurationSum="1816.00" startedHalts="62.00" meanVehicleNumber="19.55" maxVehicleNumber="21" />