<?xml version="1.0" encoding="UTF-8"?>

<!-- generated on Sun Feb 17 15:57:00 2019 by 
<configuration xmlns:xsi="http://www.w3.org/2001/XMLSchema-instance" xsi:noNamespaceSchemaLocation="http://sumo.dlr.de/xsd/Configuration.xsd">

    <input>
        <net-file value="/home/sda/Documents/sumo-sathorn-ray/models/sathorn-morning/sathorn_w_fixed_20160404.net.xml"/>
        <route-files value="/home/sda/Documents/sumo-sathorn-ray/models/sathorn-morning/Great-route/sathorn_w_20160422edit2.rou.xml"/>
        <additional-files value="/home/sda/Documents/sumo-sathorn-ray/models/sathorn-morning/sathon_wide_tls_20160418_edited.add.xml,/home/sda/Documents/sumo-sathorn-ray/detectors/sathorn_w_detectors.add.xml"/>
    </input>

    <time>
        <begin value="21600"/>
        <end value="32400"/>
        <step-length value="1"/>
    </time>

    <processing>
        <no-internal-links value="true"/>
        <ignore-junction-blocker value="-1"/>
        <time-to-teleport value="-1"/>
        <eager-insert value="true"/>
        <time-to-impatience value="300"/>
    </processing>

    <report>
        <no-warnings value="true"/>
    </report>

    <random_number>
        <random value="false"/>
        <seed value="20"/>
    </random_number>

    <gui_only>
        <gui-settings-file value="/home/sda/Documents/sumo-sathorn-ray/gui-settings/gui-settings-file-surasak.xml"/>
        <quit-on-end value="true"/>
        <start value="true"/>
        <tracker-interval value="1"/>
    </gui_only>

</configuration>
-->

<detector xmlns:xsi="http://www.w3.org/2001/XMLSchema-instance" xsi:noNamespaceSchemaLocation="http://sumo.dlr.de/xsd/det_e2_file.xsd">
   <interval begin="21600.00" end="21700.00" id="e2_L565_1_3" sampledSeconds="0.00" nVehEntered="0" nVehLeft="0" nVehSeen="0" meanSpeed="-1.00" meanTimeLoss="-1.00" meanOccupancy="0.00" maxOccupancy="0.00" meanMaxJamLengthInVehicles="0.00" meanMaxJamLengthInMeters="0.00" maxJamLengthInVehicles="0" maxJamLengthInMeters="0.00" jamLengthInVehiclesSum="0" jamLengthInMetersSum="0.00" meanHaltingDuration="0.00" maxHaltingDuration="0.00" haltingDurationSum="0.00" meanIntervalHaltingDuration="0.00" maxIntervalHaltingDuration="0.00" intervalHaltingDurationSum="0.00" startedHalts="0.00" meanVehicleNumber="0.00" maxVehicleNumber="0" />
   <interval begin="21700.00" end="21800.00" id="e2_L565_1_3" sampledSeconds="0.00" nVehEntered="0" nVehLeft="0" nVehSeen="0" meanSpeed="-1.00" meanTimeLoss="-1.00" meanOccupancy="0.00" maxOccupancy="0.00" meanMaxJamLengthInVehicles="0.00" meanMaxJamLengthInMeters="0.00" maxJamLengthInVehicles="0" maxJamLengthInMeters="0.00" jamLengthInVehiclesSum="0" jamLengthInMetersSum="0.00" meanHaltingDuration="0.00" maxHaltingDuration="0.00" haltingDurationSum="0.00" meanIntervalHaltingDuration="0.00" maxIntervalHaltingDuration="0.00" intervalHaltingDurationSum="0.00" startedHalts="0.00" meanVehicleNumber="0.00" maxVehicleNumber="0" />
   <interval begin="21800.00" end="21900.00" id="e2_L565_1_3" sampledSeconds="0.00" nVehEntered="0" nVehLeft="0" nVehSeen="0" meanSpeed="-1.00" meanTimeLoss="-1.00" meanOccupancy="0.00" maxOccupancy="0.00" meanMaxJamLengthInVehicles="0.00" meanMaxJamLengthInMeters="0.00" maxJamLengthInVehicles="0" maxJamLengthInMeters="0.00" jamLengthInVehiclesSum="0" jamLengthInMetersSum="0.00" meanHaltingDuration="0.00" maxHaltingDuration="0.00" haltingDurationSum="0.00" meanIntervalHaltingDuration="0.00" maxIntervalHaltingDuration="0.00" intervalHaltingDurationSum="0.00" startedHalts="0.00" meanVehicleNumber="0.00" maxVehicleNumber="0" />
   <interval begin="21900.00" end="22000.00" id="e2_L565_1_3" sampledSeconds="32.57" nVehEntered="1" nVehLeft="1" nVehSeen="1" meanSpeed="11.91" meanTimeLoss="1.52" meanOccupancy="0.37" maxOccupancy="1.15" meanMaxJamLengthInVehicles="0.00" meanMaxJamLengthInMeters="0.00" maxJamLengthInVehicles="0" maxJamLengthInMeters="0.00" jamLengthInVehiclesSum="0" jamLengthInMetersSum="0.00" meanHaltingDuration="0.00" maxHaltingDuration="0.00" haltingDurationSum="0.00" meanIntervalHaltingDuration="0.00" maxIntervalHaltingDuration="0.00" intervalHaltingDurationSum="0.00" startedHalts="0.00" meanVehicleNumber="0.33" maxVehicleNumber="1" />
   <interval begin="22000.00" end="22100.00" id="e2_L565_1_3" sampledSeconds="0.00" nVehEntered="0" nVehLeft="0" nVehSeen="0" meanSpeed="-1.00" meanTimeLoss="-1.00" meanOccupancy="0.00" maxOccupancy="0.00" meanMaxJamLengthInVehicles="0.00" meanMaxJamLengthInMeters="0.00" maxJamLengthInVehicles="0" maxJamLengthInMeters="0.00" jamLengthInVehiclesSum="0" jamLengthInMetersSum="0.00" meanHaltingDuration="0.00" maxHaltingDuration="0.00" haltingDurationSum="0.00" meanIntervalHaltingDuration="0.00" maxIntervalHaltingDuration="0.00" intervalHaltingDurationSum="0.00" startedHalts="0.00" meanVehicleNumber="0.00" maxVehicleNumber="0" />
   <interval begin="22100.00" end="22200.00" id="e2_L565_1_3" sampledSeconds="0.00" nVehEntered="0" nVehLeft="0" nVehSeen="0" meanSpeed="-1.00" meanTimeLoss="-1.00" meanOccupancy="0.00" maxOccupancy="0.00" meanMaxJamLengthInVehicles="0.00" meanMaxJamLengthInMeters="0.00" maxJamLengthInVehicles="0" maxJamLengthInMeters="0.00" jamLengthInVehiclesSum="0" jamLengthInMetersSum="0.00" meanHaltingDuration="0.00" maxHaltingDuration="0.00" haltingDurationSum="0.00" meanIntervalHaltingDuration="0.00" maxIntervalHaltingDuration="0.00" intervalHaltingDurationSum="0.00" startedHalts="0.00" meanVehicleNumber="0.00" maxVehicleNumber="0" />
   <interval begin="22200.00" end="22300.00" id="e2_L565_1_3" sampledSeconds="15.24" nVehEntered="1" nVehLeft="1" nVehSeen="1" meanSpeed="11.77" meanTimeLoss="0.90" meanOccupancy="0.17" maxOccupancy="1.15" meanMaxJamLengthInVehicles="0.00" meanMaxJamLengthInMeters="0.00" maxJamLengthInVehicles="0" maxJamLengthInMeters="0.00" jamLengthInVehiclesSum="0" jamLengthInMetersSum="0.00" meanHaltingDuration="0.00" maxHaltingDuration="0.00" haltingDurationSum="0.00" meanIntervalHaltingDuration="0.00" maxIntervalHaltingDuration="0.00" intervalHaltingDurationSum="0.00" startedHalts="0.00" meanVehicleNumber="0.16" maxVehicleNumber="1" />
   <interval begin="22300.00" end="22400.00" id="e2_L565_1_3" sampledSeconds="34.68" nVehEntered="2" nVehLeft="1" nVehSeen="2" meanSpeed="11.76" meanTimeLoss="1.03" meanOccupancy="0.39" maxOccupancy="1.15" meanMaxJamLengthInVehicles="0.00" meanMaxJamLengthInMeters="0.00" maxJamLengthInVehicles="0" maxJamLengthInMeters="0.00" jamLengthInVehiclesSum="0" jamLengthInMetersSum="0.00" meanHaltingDuration="0.00" maxHaltingDuration="0.00" haltingDurationSum="0.00" meanIntervalHaltingDuration="0.00" maxIntervalHaltingDuration="0.00" intervalHaltingDurationSum="0.00" startedHalts="0.00" meanVehicleNumber="0.35" maxVehicleNumber="1" />
   <interval begin="22400.00" end="22500.00" id="e2_L565_1_3" sampledSeconds="57.33" nVehEntered="1" nVehLeft="2" nVehSeen="2" meanSpeed="11.79" meanTimeLoss="1.63" meanOccupancy="0.64" maxOccupancy="2.30" meanMaxJamLengthInVehicles="0.00" meanMaxJamLengthInMeters="0.00" maxJamLengthInVehicles="0" maxJamLengthInMeters="0.00" jamLengthInVehiclesSum="0" jamLengthInMetersSum="0.00" meanHaltingDuration="0.00" maxHaltingDuration="0.00" haltingDurationSum="0.00" meanIntervalHaltingDuration="0.00" maxIntervalHaltingDuration="0.00" intervalHaltingDurationSum="0.00" startedHalts="0.00" meanVehicleNumber="0.59" maxVehicleNumber="2" />
   <interval begin="22500.00" end="22600.00" id="e2_L565_1_3" sampledSeconds="0.00" nVehEntered="0" nVehLeft="0" nVehSeen="0" meanSpeed="-1.00" meanTimeLoss="-1.00" meanOccupancy="0.00" maxOccupancy="0.00" meanMaxJamLengthInVehicles="0.00" meanMaxJamLengthInMeters="0.00" maxJamLengthInVehicles="0" maxJamLengthInMeters="0.00" jamLengthInVehiclesSum="0" jamLengthInMetersSum="0.00" meanHaltingDuration="0.00" maxHaltingDuration="0.00" haltingDurationSum="0.00" meanIntervalHaltingDuration="0.00" maxIntervalHaltingDuration="0.00" intervalHaltingDurationSum="0.00" startedHalts="0.00" meanVehicleNumber="0.00" maxVehicleNumber="0" />
   <interval begin="22600.00" end="22700.00" id="e2_L565_1_3" sampledSeconds="80.48" nVehEntered="5" nVehLeft="3" nVehSeen="5" meanSpeed="11.79" meanTimeLoss="0.91" meanOccupancy="0.91" maxOccupancy="2.30" meanMaxJamLengthInVehicles="0.00" meanMaxJamLengthInMeters="0.00" maxJamLengthInVehicles="0" maxJamLengthInMeters="0.00" jamLengthInVehiclesSum="0" jamLengthInMetersSum="0.00" meanHaltingDuration="0.00" maxHaltingDuration="0.00" haltingDurationSum="0.00" meanIntervalHaltingDuration="0.00" maxIntervalHaltingDuration="0.00" intervalHaltingDurationSum="0.00" startedHalts="0.00" meanVehicleNumber="0.81" maxVehicleNumber="2" />
   <interval begin="22700.00" end="22800.00" id="e2_L565_1_3" sampledSeconds="214.86" nVehEntered="6" nVehLeft="6" nVehSeen="8" meanSpeed="11.74" meanTimeLoss="1.64" meanOccupancy="2.42" maxOccupancy="3.45" meanMaxJamLengthInVehicles="0.00" meanMaxJamLengthInMeters="0.00" maxJamLengthInVehicles="0" maxJamLengthInMeters="0.00" jamLengthInVehiclesSum="0" jamLengthInMetersSum="0.00" meanHaltingDuration="0.00" maxHaltingDuration="0.00" haltingDurationSum="0.00" meanIntervalHaltingDuration="0.00" maxIntervalHaltingDuration="0.00" intervalHaltingDurationSum="0.00" startedHalts="0.00" meanVehicleNumber="2.17" maxVehicleNumber="4" />
   <interval begin="22800.00" end="22900.00" id="e2_L565_1_3" sampledSeconds="234.29" nVehEntered="10" nVehLeft="9" nVehSeen="12" meanSpeed="11.61" meanTimeLoss="1.32" meanOccupancy="2.64" maxOccupancy="5.76" meanMaxJamLengthInVehicles="0.00" meanMaxJamLengthInMeters="0.00" maxJamLengthInVehicles="0" maxJamLengthInMeters="0.00" jamLengthInVehiclesSum="0" jamLengthInMetersSum="0.00" meanHaltingDuration="0.00" maxHaltingDuration="0.00" haltingDurationSum="0.00" meanIntervalHaltingDuration="0.00" maxIntervalHaltingDuration="0.00" intervalHaltingDurationSum="0.00" startedHalts="0.00" meanVehicleNumber="2.37" maxVehicleNumber="5" />
   <interval begin="22900.00" end="23000.00" id="e2_L565_1_3" sampledSeconds="275.51" nVehEntered="13" nVehLeft="11" nVehSeen="16" meanSpeed="8.86" meanTimeLoss="4.98" meanOccupancy="3.05" maxOccupancy="5.76" meanMaxJamLengthInVehicles="0.47" meanMaxJamLengthInMeters="2.86" maxJamLengthInVehicles="3" maxJamLengthInMeters="20.58" jamLengthInVehiclesSum="47" jamLengthInMetersSum="285.89" meanHaltingDuration="13.50" maxHaltingDuration="18.00" haltingDurationSum="27.00" meanIntervalHaltingDuration="13.50" maxIntervalHaltingDuration="18.00" intervalHaltingDurationSum="27.00" startedHalts="3.00" meanVehicleNumber="2.78" maxVehicleNumber="5" />
   <interval begin="23000.00" end="23100.00" id="e2_L565_1_3" sampledSeconds="741.98" nVehEntered="24" nVehLeft="26" nVehSeen="29" meanSpeed="3.91" meanTimeLoss="17.58" meanOccupancy="8.30" maxOccupancy="12.52" meanMaxJamLengthInVehicles="3.42" meanMaxJamLengthInMeters="22.96" maxJamLengthInVehicles="8" maxJamLengthInMeters="55.47" jamLengthInVehiclesSum="359" jamLengthInMetersSum="2401.81" meanHaltingDuration="16.12" maxHaltingDuration="62.00" haltingDurationSum="403.00" meanIntervalHaltingDuration="15.04" maxIntervalHaltingDuration="48.00" intervalHaltingDurationSum="376.00" startedHalts="25.00" meanVehicleNumber="7.47" maxVehicleNumber="11" />
   <interval begin="23100.00" end="23200.00" id="e2_L565_1_3" sampledSeconds="315.96" nVehEntered="22" nVehLeft="22" nVehSeen="25" meanSpeed="8.24" meanTimeLoss="4.31" meanOccupancy="3.49" maxOccupancy="6.91" meanMaxJamLengthInVehicles="0.17" meanMaxJamLengthInMeters="0.78" maxJamLengthInVehicles="1" maxJamLengthInMeters="4.62" jamLengthInVehiclesSum="17" jamLengthInMetersSum="77.60" meanHaltingDuration="2.20" maxHaltingDuration="4.00" haltingDurationSum="22.00" meanIntervalHaltingDuration="2.20" maxIntervalHaltingDuration="4.00" intervalHaltingDurationSum="22.00" startedHalts="13.00" meanVehicleNumber="3.22" maxVehicleNumber="6" />
   <interval begin="23200.00" end="23300.00" id="e2_L565_1_3" sampledSeconds="420.10" nVehEntered="30" nVehLeft="28" nVehSeen="33" meanSpeed="7.15" meanTimeLoss="5.44" meanOccupancy="4.70" maxOccupancy="6.91" meanMaxJamLengthInVehicles="0.90" meanMaxJamLengthInMeters="5.17" maxJamLengthInVehicles="4" maxJamLengthInMeters="25.83" jamLengthInVehiclesSum="90" jamLengthInMetersSum="517.48" meanHaltingDuration="8.30" maxHaltingDuration="27.00" haltingDurationSum="83.00" meanIntervalHaltingDuration="8.30" maxIntervalHaltingDuration="27.00" intervalHaltingDurationSum="83.00" startedHalts="11.00" meanVehicleNumber="4.27" maxVehicleNumber="6" />
   <interval begin="23300.00" end="23400.00" id="e2_L565_1_3" sampledSeconds="1470.00" nVehEntered="33" nVehLeft="17" nVehSeen="38" meanSpeed="1.95" meanTimeLoss="32.63" meanOccupancy="16.92" maxOccupancy="24.18" meanMaxJamLengthInVehicles="11.75" meanMaxJamLengthInMeters="79.81" maxJamLengthInVehicles="19" maxJamLengthInMeters="130.50" jamLengthInVehiclesSum="1175" jamLengthInMetersSum="7981.18" meanHaltingDuration="62.00" maxHaltingDuration="127.00" haltingDurationSum="1240.00" meanIntervalHaltingDuration="59.55" maxIntervalHaltingDuration="100.00" intervalHaltingDurationSum="1191.00" startedHalts="16.00" meanVehicleNumber="14.70" maxVehicleNumber="21" />
   <interval begin="23400.00" end="23500.00" id="e2_L565_1_3" sampledSeconds="2764.00" nVehEntered="26" nVehLeft="14" nVehSeen="47" meanSpeed="0.45" meanTimeLoss="56.67" meanOccupancy="31.82" maxOccupancy="39.14" meanMaxJamLengthInVehicles="26.09" meanMaxJamLengthInMeters="180.04" maxJamLengthInVehicles="33" maxJamLengthInMeters="228.56" jamLengthInVehiclesSum="2609" jamLengthInMetersSum="18004.33" meanHaltingDuration="117.03" maxHaltingDuration="227.00" haltingDurationSum="3862.00" meanIntervalHaltingDuration="79.48" maxIntervalHaltingDuration="100.00" intervalHaltingDurationSum="2623.00" startedHalts="14.00" meanVehicleNumber="27.64" maxVehicleNumber="34" />
   <interval begin="23500.00" end="23600.00" id="e2_L565_1_3" sampledSeconds="4070.00" nVehEntered="28" nVehLeft="13" nVehSeen="61" meanSpeed="0.21" meanTimeLoss="65.63" meanOccupancy="46.86" maxOccupancy="55.26" meanMaxJamLengthInVehicles="39.50" meanMaxJamLengthInMeters="273.81" maxJamLengthInVehicles="46" maxJamLengthInMeters="319.76" jamLengthInVehiclesSum="3950" jamLengthInMetersSum="27380.78" meanHaltingDuration="170.11" maxHaltingDuration="327.00" haltingDurationSum="7825.00" meanIntervalHaltingDuration="86.15" maxIntervalHaltingDuration="100.00" intervalHaltingDurationSum="3963.00" startedHalts="13.00" meanVehicleNumber="40.70" maxVehicleNumber="48" />
   <interval begin="23600.00" end="23700.00" id="e2_L565_1_3" sampledSeconds="5359.00" nVehEntered="17" nVehLeft="9" nVehSeen="65" meanSpeed="0.06" meanTimeLoss="82.06" meanOccupancy="61.69" maxOccupancy="64.47" meanMaxJamLengthInVehicles="53.01" meanMaxJamLengthInMeters="368.25" maxJamLengthInVehicles="56" maxJamLengthInMeters="389.34" jamLengthInVehiclesSum="5301" jamLengthInMetersSum="36824.89" meanHaltingDuration="234.57" maxHaltingDuration="427.00" haltingDurationSum="13136.00" meanIntervalHaltingDuration="94.84" maxIntervalHaltingDuration="100.00" intervalHaltingDurationSum="5311.00" startedHalts="11.00" meanVehicleNumber="53.59" maxVehicleNumber="56" />
   <interval begin="23700.00" end="23800.00" id="e2_L565_1_3" sampledSeconds="5600.00" nVehEntered="0" nVehLeft="0" nVehSeen="56" meanSpeed="0.00" meanTimeLoss="100.00" meanOccupancy="64.47" maxOccupancy="64.47" meanMaxJamLengthInVehicles="56.00" meanMaxJamLengthInMeters="389.13" maxJamLengthInVehicles="56" maxJamLengthInMeters="389.13" jamLengthInVehiclesSum="5600" jamLengthInMetersSum="38912.72" meanHaltingDuration="334.57" maxHaltingDuration="527.00" haltingDurationSum="18736.00" meanIntervalHaltingDuration="100.00" maxIntervalHaltingDuration="100.00" intervalHaltingDurationSum="5600.00" startedHalts="0.00" meanVehicleNumber="56.00" maxVehicleNumber="56" />
   <interval begin="23800.00" end="23900.00" id="e2_L565_1_3" sampledSeconds="5600.00" nVehEntered="0" nVehLeft="0" nVehSeen="56" meanSpeed="0.00" meanTimeLoss="100.00" meanOccupancy="64.47" maxOccupancy="64.47" meanMaxJamLengthInVehicles="56.00" meanMaxJamLengthInMeters="389.13" maxJamLengthInVehicles="56" maxJamLengthInMeters="389.13" jamLengthInVehiclesSum="5600" jamLengthInMetersSum="38912.72" meanHaltingDuration="434.57" maxHaltingDuration="627.00" haltingDurationSum="24336.00" meanIntervalHaltingDuration="100.00" maxIntervalHaltingDuration="100.00" intervalHaltingDurationSum="5600.00" startedHalts="0.00" meanVehicleNumber="56.00" maxVehicleNumber="56" />
   <interval begin="23900.00" end="24000.00" id="e2_L565_1_3" sampledSeconds="5600.00" nVehEntered="0" nVehLeft="0" nVehSeen="56" meanSpeed="0.00" meanTimeLoss="100.00" meanOccupancy="64.47" maxOccupancy="64.47" meanMaxJamLengthInVehicles="56.00" meanMaxJamLengthInMeters="389.13" maxJamLengthInVehicles="56" maxJamLengthInMeters="389.13" jamLengthInVehiclesSum="5600" jamLengthInMetersSum="38912.72" meanHaltingDuration="534.57" maxHaltingDuration="727.00" haltingDurationSum="29936.00" meanIntervalHaltingDuration="100.00" maxIntervalHaltingDuration="100.00" intervalHaltingDurationSum="5600.00" startedHalts="0.00" meanVehicleNumber="56.00" maxVehicleNumber="56" />
   <interval begin="24000.00" end="24100.00" id="e2_L565_1_3" sampledSeconds="5600.00" nVehEntered="0" nVehLeft="0" nVehSeen="56" meanSpeed="0.00" meanTimeLoss="100.00" meanOccupancy="64.47" maxOccupancy="64.47" meanMaxJamLengthInVehicles="56.00" meanMaxJamLengthInMeters="389.13" maxJamLengthInVehicles="56" maxJamLengthInMeters="389.13" jamLengthInVehiclesSum="5600" jamLengthInMetersSum="38912.72" meanHaltingDuration="634.57" maxHaltingDuration="827.00" haltingDurationSum="35536.00" meanIntervalHaltingDuration="100.00" maxIntervalHaltingDuration="100.00" intervalHaltingDurationSum="5600.00" startedHalts="0.00" meanVehicleNumber="56.00" maxVehicleNumber="56" />
   <interval begin="24100.00" end="24200.00" id="e2_L565_1_3" sampledSeconds="5600.00" nVehEntered="0" nVehLeft="0" nVehSeen="56" meanSpeed="0.00" meanTimeLoss="100.00" meanOccupancy="64.47" maxOccupancy="64.47" meanMaxJamLengthInVehicles="56.00" meanMaxJamLengthInMeters="389.13" maxJamLengthInVehicles="56" maxJamLengthInMeters="389.13" jamLengthInVehiclesSum="5600" jamLengthInMetersSum="38912.72" meanHaltingDuration="734.57" maxHaltingDuration="927.00" haltingDurationSum="41136.00" meanIntervalHaltingDuration="100.00" maxIntervalHaltingDuration="100.00" intervalHaltingDurationSum="5600.00" startedHalts="0.00" meanVehicleNumber="56.00" maxVehicleNumber="56" />
   <interval begin="24200.00" end="24300.00" id="e2_L565_1_3" sampledSeconds="5600.00" nVehEntered="0" nVehLeft="0" nVehSeen="56" meanSpeed="0.00" meanTimeLoss="100.00" meanOccupancy="64.47" maxOccupancy="64.47" meanMaxJamLengthInVehicles="56.00" meanMaxJamLengthInMeters="389.13" maxJamLengthInVehicles="56" maxJamLengthInMeters="389.13" jamLengthInVehiclesSum="5600" jamLengthInMetersSum="38912.73" meanHaltingDuration="834.57" maxHaltingDuration="1027.00" haltingDurationSum="46736.00" meanIntervalHaltingDuration="100.00" maxIntervalHaltingDuration="100.00" intervalHaltingDurationSum="5600.00" startedHalts="0.00" meanVehicleNumber="56.00" maxVehicleNumber="56" />
   <interval begin="24300.00" end="24400.00" id="e2_L565_1_3" sampledSeconds="5600.00" nVehEntered="0" nVehLeft="0" nVehSeen="56" meanSpeed="0.00" meanTimeLoss="100.00" meanOccupancy="64.47" maxOccupancy="64.47" meanMaxJamLengthInVehicles="56.00" meanMaxJamLengthInMeters="389.13" maxJamLengthInVehicles="56" maxJamLengthInMeters="389.13" jamLengthInVehiclesSum="5600" jamLengthInMetersSum="38912.72" meanHaltingDuration="934.57" maxHaltingDuration="1127.00" haltingDurationSum="52336.00" meanIntervalHaltingDuration="100.00" maxIntervalHaltingDuration="100.00" intervalHaltingDurationSum="5600.00" startedHalts="0.00" meanVehicleNumber="56.00" maxVehicleNumber="56" />
   <interval begin="24400.00" end="24500.00" id="e2_L565_1_3" sampledSeconds="5600.00" nVehEntered="0" nVehLeft="0" nVehSeen="56" meanSpeed="0.00" meanTimeLoss="100.00" meanOccupancy="64.47" maxOccupancy="64.47" meanMaxJamLengthInVehicles="56.00" meanMaxJamLengthInMeters="389.13" maxJamLengthInVehicles="56" maxJamLengthInMeters="389.13" jamLengthInVehiclesSum="5600" jamLengthInMetersSum="38912.69" meanHaltingDuration="1034.57" maxHaltingDuration="1227.00" haltingDurationSum="57936.00" meanIntervalHaltingDuration="100.00" maxIntervalHaltingDuration="100.00" intervalHaltingDurationSum="5600.00" startedHalts="0.00" meanVehicleNumber="56.00" maxVehicleNumber="56" />
   <interval begin="24500.00" end="24600.00" id="e2_L565_1_3" sampledSeconds="5392.97" nVehEntered="0" nVehLeft="11" nVehSeen="56" meanSpeed="0.19" meanTimeLoss="94.86" meanOccupancy="61.98" maxOccupancy="64.47" meanMaxJamLengthInVehicles="50.24" meanMaxJamLengthInMeters="349.86" maxJamLengthInVehicles="56" maxJamLengthInMeters="392.07" jamLengthInVehiclesSum="5047" jamLengthInMetersSum="35108.97" meanHaltingDuration="649.70" maxHaltingDuration="1288.00" haltingDurationSum="63021.00" meanIntervalHaltingDuration="52.42" maxIntervalHaltingDuration="100.00" intervalHaltingDurationSum="5085.00" startedHalts="42.00" meanVehicleNumber="53.97" maxVehicleNumber="56" />
   <interval begin="24600.00" end="24700.00" id="e2_L565_1_3" sampledSeconds="4186.38" nVehEntered="16" nVehLeft="14" nVehSeen="61" meanSpeed="1.44" meanTimeLoss="60.71" meanOccupancy="47.26" maxOccupancy="55.29" meanMaxJamLengthInVehicles="25.33" meanMaxJamLengthInMeters="178.02" maxJamLengthInVehicles="48" maxJamLengthInMeters="337.87" jamLengthInVehiclesSum="2639" jamLengthInMetersSum="18433.92" meanHaltingDuration="146.21" maxHaltingDuration="1129.00" haltingDurationSum="29680.00" meanIntervalHaltingDuration="13.67" maxIntervalHaltingDuration="79.00" intervalHaltingDurationSum="2776.00" startedHalts="176.00" meanVehicleNumber="41.90" maxVehicleNumber="49" />
   <interval begin="24700.00" end="24800.00" id="e2_L565_1_3" sampledSeconds="5384.00" nVehEntered="19" nVehLeft="9" nVehSeen="66" meanSpeed="0.06" meanTimeLoss="81.19" meanOccupancy="60.86" maxOccupancy="64.49" meanMaxJamLengthInVehicles="53.19" meanMaxJamLengthInMeters="369.54" maxJamLengthInVehicles="57" maxJamLengthInMeters="396.17" jamLengthInVehiclesSum="5319" jamLengthInMetersSum="36953.97" meanHaltingDuration="128.14" maxHaltingDuration="179.00" haltingDurationSum="7432.00" meanIntervalHaltingDuration="91.90" maxIntervalHaltingDuration="100.00" intervalHaltingDurationSum="5330.00" startedHalts="11.00" meanVehicleNumber="53.84" maxVehicleNumber="57" />
   <interval begin="24800.00" end="24900.00" id="e2_L565_1_3" sampledSeconds="5700.00" nVehEntered="0" nVehLeft="0" nVehSeen="57" meanSpeed="0.00" meanTimeLoss="100.00" meanOccupancy="64.49" maxOccupancy="64.49" meanMaxJamLengthInVehicles="57.00" meanMaxJamLengthInMeters="396.12" maxJamLengthInVehicles="57" maxJamLengthInMeters="396.12" jamLengthInVehiclesSum="5700" jamLengthInMetersSum="39611.77" meanHaltingDuration="230.37" maxHaltingDuration="279.00" haltingDurationSum="13131.00" meanIntervalHaltingDuration="100.00" maxIntervalHaltingDuration="100.00" intervalHaltingDurationSum="5700.00" startedHalts="0.00" meanVehicleNumber="57.00" maxVehicleNumber="57" />
   <interval begin="24900.00" end="25000.00" id="e2_L565_1_3" sampledSeconds="5700.00" nVehEntered="0" nVehLeft="0" nVehSeen="57" meanSpeed="0.00" meanTimeLoss="100.00" meanOccupancy="64.49" maxOccupancy="64.49" meanMaxJamLengthInVehicles="57.00" meanMaxJamLengthInMeters="396.12" maxJamLengthInVehicles="57" maxJamLengthInMeters="396.12" jamLengthInVehiclesSum="5700" jamLengthInMetersSum="39611.75" meanHaltingDuration="330.37" maxHaltingDuration="379.00" haltingDurationSum="18831.00" meanIntervalHaltingDuration="100.00" maxIntervalHaltingDuration="100.00" intervalHaltingDurationSum="5700.00" startedHalts="0.00" meanVehicleNumber="57.00" maxVehicleNumber="57" />
   <interval begin="25000.00" end="25100.00" id="e2_L565_1_3" sampledSeconds="5700.00" nVehEntered="0" nVehLeft="0" nVehSeen="57" meanSpeed="0.00" meanTimeLoss="100.00" meanOccupancy="64.49" maxOccupancy="64.49" meanMaxJamLengthInVehicles="57.00" meanMaxJamLengthInMeters="396.12" maxJamLengthInVehicles="57" maxJamLengthInMeters="396.12" jamLengthInVehiclesSum="5700" jamLengthInMetersSum="39611.75" meanHaltingDuration="430.37" maxHaltingDuration="479.00" haltingDurationSum="24531.00" meanIntervalHaltingDuration="100.00" maxIntervalHaltingDuration="100.00" intervalHaltingDurationSum="5700.00" startedHalts="0.00" meanVehicleNumber="57.00" maxVehicleNumber="57" />
   <interval begin="25100.00" end="25200.00" id="e2_L565_1_3" sampledSeconds="5700.00" nVehEntered="0" nVehLeft="0" nVehSeen="57" meanSpeed="0.00" meanTimeLoss="100.00" meanOccupancy="64.49" maxOccupancy="64.49" meanMaxJamLengthInVehicles="57.00" meanMaxJamLengthInMeters="396.12" maxJamLengthInVehicles="57" maxJamLengthInMeters="396.12" jamLengthInVehiclesSum="5700" jamLengthInMetersSum="39611.75" meanHaltingDuration="530.37" maxHaltingDuration="579.00" haltingDurationSum="30231.00" meanIntervalHaltingDuration="100.00" maxIntervalHaltingDuration="100.00" intervalHaltingDurationSum="5700.00" startedHalts="0.00" meanVehicleNumber="57.00" maxVehicleNumber="57" />
   <interval begin="25200.00" end="25300.00" id="e2_L565_1_3" sampledSeconds="5700.00" nVehEntered="0" nVehLeft="0" nVehSeen="57" meanSpeed="0.00" meanTimeLoss="100.00" meanOccupancy="64.49" maxOccupancy="64.49" meanMaxJamLengthInVehicles="57.00" meanMaxJamLengthInMeters="396.12" maxJamLengthInVehicles="57" maxJamLengthInMeters="396.12" jamLengthInVehiclesSum="5700" jamLengthInMetersSum="39611.75" meanHaltingDuration="630.37" maxHaltingDuration="679.00" haltingDurationSum="35931.00" meanIntervalHaltingDuration="100.00" maxIntervalHaltingDuration="100.00" intervalHaltingDurationSum="5700.00" startedHalts="0.00" meanVehicleNumber="57.00" maxVehicleNumber="57" />
   <interval begin="25300.00" end="25400.00" id="e2_L565_1_3" sampledSeconds="5700.00" nVehEntered="0" nVehLeft="0" nVehSeen="57" meanSpeed="0.00" meanTimeLoss="100.00" meanOccupancy="64.49" maxOccupancy="64.49" meanMaxJamLengthInVehicles="57.00" meanMaxJamLengthInMeters="396.12" maxJamLengthInVehicles="57" maxJamLengthInMeters="396.12" jamLengthInVehiclesSum="5700" jamLengthInMetersSum="39611.75" meanHaltingDuration="730.37" maxHaltingDuration="779.00" haltingDurationSum="41631.00" meanIntervalHaltingDuration="100.00" maxIntervalHaltingDuration="100.00" intervalHaltingDurationSum="5700.00" startedHalts="0.00" meanVehicleNumber="57.00" maxVehicleNumber="57" />
   <interval begin="25400.00" end="25500.00" id="e2_L565_1_3" sampledSeconds="5700.00" nVehEntered="0" nVehLeft="0" nVehSeen="57" meanSpeed="0.00" meanTimeLoss="100.00" meanOccupancy="64.49" maxOccupancy="64.49" meanMaxJamLengthInVehicles="57.00" meanMaxJamLengthInMeters="396.12" maxJamLengthInVehicles="57" maxJamLengthInMeters="396.12" jamLengthInVehiclesSum="5700" jamLengthInMetersSum="39611.75" meanHaltingDuration="830.37" maxHaltingDuration="879.00" haltingDurationSum="47331.00" meanIntervalHaltingDuration="100.00" maxIntervalHaltingDuration="100.00" intervalHaltingDurationSum="5700.00" startedHalts="0.00" meanVehicleNumber="57.00" maxVehicleNumber="57" />
   <interval begin="25500.00" end="25600.00" id="e2_L565_1_3" sampledSeconds="5700.00" nVehEntered="0" nVehLeft="0" nVehSeen="57" meanSpeed="0.00" meanTimeLoss="100.00" meanOccupancy="64.49" maxOccupancy="64.49" meanMaxJamLengthInVehicles="57.00" meanMaxJamLengthInMeters="396.12" maxJamLengthInVehicles="57" maxJamLengthInMeters="396.12" jamLengthInVehiclesSum="5700" jamLengthInMetersSum="39611.75" meanHaltingDuration="930.37" maxHaltingDuration="979.00" haltingDurationSum="53031.00" meanIntervalHaltingDuration="100.00" maxIntervalHaltingDuration="100.00" intervalHaltingDurationSum="5700.00" startedHalts="0.00" meanVehicleNumber="57.00" maxVehicleNumber="57" />
   <interval begin="25600.00" end="25700.00" id="e2_L565_1_3" sampledSeconds="5700.00" nVehEntered="0" nVehLeft="0" nVehSeen="57" meanSpeed="0.00" meanTimeLoss="100.00" meanOccupancy="64.49" maxOccupancy="64.49" meanMaxJamLengthInVehicles="57.00" meanMaxJamLengthInMeters="396.12" maxJamLengthInVehicles="57" maxJamLengthInMeters="396.12" jamLengthInVehiclesSum="5700" jamLengthInMetersSum="39611.75" meanHaltingDuration="1030.37" maxHaltingDuration="1079.00" haltingDurationSum="58731.00" meanIntervalHaltingDuration="100.00" maxIntervalHaltingDuration="100.00" intervalHaltingDurationSum="5700.00" startedHalts="0.00" meanVehicleNumber="57.00" maxVehicleNumber="57" />
   <interval begin="25700.00" end="25800.00" id="e2_L565_1_3" sampledSeconds="5700.00" nVehEntered="0" nVehLeft="0" nVehSeen="57" meanSpeed="0.00" meanTimeLoss="100.00" meanOccupancy="64.49" maxOccupancy="64.49" meanMaxJamLengthInVehicles="57.00" meanMaxJamLengthInMeters="396.12" maxJamLengthInVehicles="57" maxJamLengthInMeters="396.12" jamLengthInVehiclesSum="5700" jamLengthInMetersSum="39611.75" meanHaltingDuration="1130.37" maxHaltingDuration="1179.00" haltingDurationSum="64431.00" meanIntervalHaltingDuration="100.00" maxIntervalHaltingDuration="100.00" intervalHaltingDurationSum="5700.00" startedHalts="0.00" meanVehicleNumber="57.00" maxVehicleNumber="57" />
   <interval begin="25800.00" end="25900.00" id="e2_L565_1_3" sampledSeconds="5700.00" nVehEntered="0" nVehLeft="0" nVehSeen="57" meanSpeed="0.00" meanTimeLoss="100.00" meanOccupancy="64.49" maxOccupancy="64.49" meanMaxJamLengthInVehicles="57.00" meanMaxJamLengthInMeters="396.12" maxJamLengthInVehicles="57" maxJamLengthInMeters="396.12" jamLengthInVehiclesSum="5700" jamLengthInMetersSum="39611.75" meanHaltingDuration="1230.37" maxHaltingDuration="1279.00" haltingDurationSum="70131.00" meanIntervalHaltingDuration="100.00" maxIntervalHaltingDuration="100.00" intervalHaltingDurationSum="5700.00" startedHalts="0.00" meanVehicleNumber="57.00" maxVehicleNumber="57" />