<?xml version="1.0" encoding="UTF-8"?>

<!-- generated on Sun Feb 17 15:57:00 2019 by 
<configuration xmlns:xsi="http://www.w3.org/2001/XMLSchema-instance" xsi:noNamespaceSchemaLocation="http://sumo.dlr.de/xsd/Configuration.xsd">

    <input>
        <net-file value="/home/sda/Documents/sumo-sathorn-ray/models/sathorn-morning/sathorn_w_fixed_20160404.net.xml"/>
        <route-files value="/home/sda/Documents/sumo-sathorn-ray/models/sathorn-morning/Great-route/sathorn_w_20160422edit2.rou.xml"/>
        <additional-files value="/home/sda/Documents/sumo-sathorn-ray/models/sathorn-morning/sathon_wide_tls_20160418_edited.add.xml,/home/sda/Documents/sumo-sathorn-ray/detectors/sathorn_w_detectors.add.xml"/>
    </input>

    <time>
        <begin value="21600"/>
        <end value="32400"/>
        <step-length value="1"/>
    </time>

    <processing>
        <no-internal-links value="true"/>
        <ignore-junction-blocker value="-1"/>
        <time-to-teleport value="-1"/>
        <eager-insert value="true"/>
        <time-to-impatience value="300"/>
    </processing>

    <report>
        <no-warnings value="true"/>
    </report>

    <random_number>
        <random value="false"/>
        <seed value="20"/>
    </random_number>

    <gui_only>
        <gui-settings-file value="/home/sda/Documents/sumo-sathorn-ray/gui-settings/gui-settings-file-surasak.xml"/>
        <quit-on-end value="true"/>
        <start value="true"/>
        <tracker-interval value="1"/>
    </gui_only>

</configuration>
-->

<detector xmlns:xsi="http://www.w3.org/2001/XMLSchema-instance" xsi:noNamespaceSchemaLocation="http://sumo.dlr.de/xsd/det_e2_file.xsd">
   <interval begin="21600.00" end="21700.00" id="e2_L193#1_0_2" sampledSeconds="0.00" nVehEntered="0" nVehLeft="0" nVehSeen="0" meanSpeed="-1.00" meanTimeLoss="-1.00" meanOccupancy="0.00" maxOccupancy="0.00" meanMaxJamLengthInVehicles="0.00" meanMaxJamLengthInMeters="0.00" maxJamLengthInVehicles="0" maxJamLengthInMeters="0.00" jamLengthInVehiclesSum="0" jamLengthInMetersSum="0.00" meanHaltingDuration="0.00" maxHaltingDuration="0.00" haltingDurationSum="0.00" meanIntervalHaltingDuration="0.00" maxIntervalHaltingDuration="0.00" intervalHaltingDurationSum="0.00" startedHalts="0.00" meanVehicleNumber="0.00" maxVehicleNumber="0" />
   <interval begin="21700.00" end="21800.00" id="e2_L193#1_0_2" sampledSeconds="0.00" nVehEntered="0" nVehLeft="0" nVehSeen="0" meanSpeed="-1.00" meanTimeLoss="-1.00" meanOccupancy="0.00" maxOccupancy="0.00" meanMaxJamLengthInVehicles="0.00" meanMaxJamLengthInMeters="0.00" maxJamLengthInVehicles="0" maxJamLengthInMeters="0.00" jamLengthInVehiclesSum="0" jamLengthInMetersSum="0.00" meanHaltingDuration="0.00" maxHaltingDuration="0.00" haltingDurationSum="0.00" meanIntervalHaltingDuration="0.00" maxIntervalHaltingDuration="0.00" intervalHaltingDurationSum="0.00" startedHalts="0.00" meanVehicleNumber="0.00" maxVehicleNumber="0" />
   <interval begin="21800.00" end="21900.00" id="e2_L193#1_0_2" sampledSeconds="302.21" nVehEntered="16" nVehLeft="14" nVehSeen="16" meanSpeed="11.82" meanTimeLoss="1.02" meanOccupancy="5.82" maxOccupancy="14.12" meanMaxJamLengthInVehicles="0.00" meanMaxJamLengthInMeters="0.00" maxJamLengthInVehicles="0" maxJamLengthInMeters="0.00" jamLengthInVehiclesSum="0" jamLengthInMetersSum="0.00" meanHaltingDuration="0.00" maxHaltingDuration="0.00" haltingDurationSum="0.00" meanIntervalHaltingDuration="0.00" maxIntervalHaltingDuration="0.00" intervalHaltingDurationSum="0.00" startedHalts="0.00" meanVehicleNumber="3.19" maxVehicleNumber="8" />
   <interval begin="21900.00" end="22000.00" id="e2_L193#1_0_2" sampledSeconds="376.35" nVehEntered="23" nVehLeft="23" nVehSeen="25" meanSpeed="11.58" meanTimeLoss="0.99" meanOccupancy="7.20" maxOccupancy="13.71" meanMaxJamLengthInVehicles="0.00" meanMaxJamLengthInMeters="0.00" maxJamLengthInVehicles="0" maxJamLengthInMeters="0.00" jamLengthInVehiclesSum="0" jamLengthInMetersSum="0.00" meanHaltingDuration="0.00" maxHaltingDuration="0.00" haltingDurationSum="0.00" meanIntervalHaltingDuration="0.00" maxIntervalHaltingDuration="0.00" intervalHaltingDurationSum="0.00" startedHalts="0.00" meanVehicleNumber="3.99" maxVehicleNumber="7" />
   <interval begin="22000.00" end="22100.00" id="e2_L193#1_0_2" sampledSeconds="541.15" nVehEntered="28" nVehLeft="23" nVehSeen="30" meanSpeed="11.70" meanTimeLoss="1.13" meanOccupancy="10.50" maxOccupancy="19.59" meanMaxJamLengthInVehicles="0.00" meanMaxJamLengthInMeters="0.00" maxJamLengthInVehicles="0" maxJamLengthInMeters="0.00" jamLengthInVehiclesSum="0" jamLengthInMetersSum="0.00" meanHaltingDuration="0.00" maxHaltingDuration="0.00" haltingDurationSum="0.00" meanIntervalHaltingDuration="0.00" maxIntervalHaltingDuration="0.00" intervalHaltingDurationSum="0.00" startedHalts="0.00" meanVehicleNumber="5.65" maxVehicleNumber="10" />
   <interval begin="22100.00" end="22200.00" id="e2_L193#1_0_2" sampledSeconds="366.50" nVehEntered="16" nVehLeft="23" nVehSeen="23" meanSpeed="11.75" meanTimeLoss="0.96" meanOccupancy="6.96" maxOccupancy="13.71" meanMaxJamLengthInVehicles="0.00" meanMaxJamLengthInMeters="0.00" maxJamLengthInVehicles="0" maxJamLengthInMeters="0.00" jamLengthInVehiclesSum="0" jamLengthInMetersSum="0.00" meanHaltingDuration="0.00" maxHaltingDuration="0.00" haltingDurationSum="0.00" meanIntervalHaltingDuration="0.00" maxIntervalHaltingDuration="0.00" intervalHaltingDurationSum="0.00" startedHalts="0.00" meanVehicleNumber="3.84" maxVehicleNumber="8" />
   <interval begin="22200.00" end="22300.00" id="e2_L193#1_0_2" sampledSeconds="627.95" nVehEntered="35" nVehLeft="31" nVehSeen="35" meanSpeed="11.63" meanTimeLoss="1.14" meanOccupancy="12.10" maxOccupancy="17.63" meanMaxJamLengthInVehicles="0.00" meanMaxJamLengthInMeters="0.00" maxJamLengthInVehicles="0" maxJamLengthInMeters="0.00" jamLengthInVehiclesSum="0" jamLengthInMetersSum="0.00" meanHaltingDuration="0.00" maxHaltingDuration="0.00" haltingDurationSum="0.00" meanIntervalHaltingDuration="0.00" maxIntervalHaltingDuration="0.00" intervalHaltingDurationSum="0.00" startedHalts="0.00" meanVehicleNumber="6.62" maxVehicleNumber="9" />
   <interval begin="22300.00" end="22400.00" id="e2_L193#1_0_2" sampledSeconds="337.26" nVehEntered="21" nVehLeft="17" nVehSeen="25" meanSpeed="11.68" meanTimeLoss="0.85" meanOccupancy="6.49" maxOccupancy="15.67" meanMaxJamLengthInVehicles="0.00" meanMaxJamLengthInMeters="0.00" maxJamLengthInVehicles="0" maxJamLengthInMeters="0.00" jamLengthInVehiclesSum="0" jamLengthInMetersSum="0.00" meanHaltingDuration="0.00" maxHaltingDuration="0.00" haltingDurationSum="0.00" meanIntervalHaltingDuration="0.00" maxIntervalHaltingDuration="0.00" intervalHaltingDurationSum="0.00" startedHalts="0.00" meanVehicleNumber="3.51" maxVehicleNumber="8" />
   <interval begin="22400.00" end="22500.00" id="e2_L193#1_0_2" sampledSeconds="1242.74" nVehEntered="17" nVehLeft="11" nVehSeen="25" meanSpeed="2.96" meanTimeLoss="37.95" meanOccupancy="24.17" maxOccupancy="29.16" meanMaxJamLengthInVehicles="8.44" meanMaxJamLengthInMeters="57.34" maxJamLengthInVehicles="14" maxJamLengthInMeters="95.51" jamLengthInVehiclesSum="844" jamLengthInMetersSum="5733.62" meanHaltingDuration="50.65" maxHaltingDuration="75.00" haltingDurationSum="861.00" meanIntervalHaltingDuration="50.65" maxIntervalHaltingDuration="75.00" intervalHaltingDurationSum="861.00" startedHalts="18.00" meanVehicleNumber="12.53" maxVehicleNumber="15" />
   <interval begin="22500.00" end="22600.00" id="e2_L193#1_0_2" sampledSeconds="1701.82" nVehEntered="15" nVehLeft="8" nVehSeen="29" meanSpeed="0.94" meanTimeLoss="54.26" meanOccupancy="33.19" maxOccupancy="42.87" meanMaxJamLengthInVehicles="15.41" meanMaxJamLengthInMeters="105.37" maxJamLengthInVehicles="19" maxJamLengthInMeters="130.51" jamLengthInVehiclesSum="1541" jamLengthInMetersSum="10536.88" meanHaltingDuration="120.25" maxHaltingDuration="175.00" haltingDurationSum="2405.00" meanIntervalHaltingDuration="77.35" maxIntervalHaltingDuration="100.00" intervalHaltingDurationSum="1547.00" startedHalts="7.00" meanVehicleNumber="17.11" maxVehicleNumber="22" />
   <interval begin="22600.00" end="22700.00" id="e2_L193#1_0_2" sampledSeconds="2761.91" nVehEntered="18" nVehLeft="5" nVehSeen="39" meanSpeed="0.34" meanTimeLoss="68.90" meanOccupancy="53.98" maxOccupancy="66.37" meanMaxJamLengthInVehicles="26.30" meanMaxJamLengthInMeters="181.54" maxJamLengthInVehicles="34" maxJamLengthInMeters="235.66" jamLengthInVehiclesSum="2630" jamLengthInMetersSum="18154.19" meanHaltingDuration="144.28" maxHaltingDuration="275.00" haltingDurationSum="5050.00" meanIntervalHaltingDuration="75.57" maxIntervalHaltingDuration="100.00" intervalHaltingDurationSum="2645.00" startedHalts="15.00" meanVehicleNumber="27.71" maxVehicleNumber="34" />
   <interval begin="22700.00" end="22800.00" id="e2_L193#1_0_2" sampledSeconds="3400.00" nVehEntered="0" nVehLeft="0" nVehSeen="34" meanSpeed="0.00" meanTimeLoss="100.00" meanOccupancy="66.37" maxOccupancy="66.37" meanMaxJamLengthInVehicles="34.00" meanMaxJamLengthInMeters="235.32" maxJamLengthInVehicles="34" maxJamLengthInMeters="235.32" jamLengthInVehiclesSum="3400" jamLengthInMetersSum="23532.42" meanHaltingDuration="248.50" maxHaltingDuration="375.00" haltingDurationSum="8449.00" meanIntervalHaltingDuration="100.00" maxIntervalHaltingDuration="100.00" intervalHaltingDurationSum="3400.00" startedHalts="0.00" meanVehicleNumber="34.00" maxVehicleNumber="34" />
   <interval begin="22800.00" end="22900.00" id="e2_L193#1_0_2" sampledSeconds="3400.00" nVehEntered="0" nVehLeft="0" nVehSeen="34" meanSpeed="0.00" meanTimeLoss="100.00" meanOccupancy="66.37" maxOccupancy="66.37" meanMaxJamLengthInVehicles="34.00" meanMaxJamLengthInMeters="