<?xml version="1.0" encoding="UTF-8"?>

<!-- generated on Sun Feb 17 15:57:00 2019 by 
<configuration xmlns:xsi="http://www.w3.org/2001/XMLSchema-instance" xsi:noNamespaceSchemaLocation="http://sumo.dlr.de/xsd/Configuration.xsd">

    <input>
        <net-file value="/home/sda/Documents/sumo-sathorn-ray/models/sathorn-morning/sathorn_w_fixed_20160404.net.xml"/>
        <route-files value="/home/sda/Documents/sumo-sathorn-ray/models/sathorn-morning/Great-route/sathorn_w_20160422edit2.rou.xml"/>
        <additional-files value="/home/sda/Documents/sumo-sathorn-ray/models/sathorn-morning/sathon_wide_tls_20160418_edited.add.xml,/home/sda/Documents/sumo-sathorn-ray/detectors/sathorn_w_detectors.add.xml"/>
    </input>

    <time>
        <begin value="21600"/>
        <end value="32400"/>
        <step-length value="1"/>
    </time>

    <processing>
        <no-internal-links value="true"/>
        <ignore-junction-blocker value="-1"/>
        <time-to-teleport value="-1"/>
        <eager-insert value="true"/>
        <time-to-impatience value="300"/>
    </processing>

    <report>
        <no-warnings value="true"/>
    </report>

    <random_number>
        <random value="false"/>
        <seed value="20"/>
    </random_number>

    <gui_only>
        <gui-settings-file value="/home/sda/Documents/sumo-sathorn-ray/gui-settings/gui-settings-file-surasak.xml"/>
        <quit-on-end value="true"/>
        <start value="true"/>
        <tracker-interval value="1"/>
    </gui_only>

</configuration>
-->

<detector xmlns:xsi="http://www.w3.org/2001/XMLSchema-instance" xsi:noNamespaceSchemaLocation="http://sumo.dlr.de/xsd/det_e2_file.xsd">
   <interval begin="21600.00" end="21700.00" id="e2_L250_0_2" sampledSeconds="0.00" nVehEntered="0" nVehLeft="0" nVehSeen="0" meanSpeed="-1.00" meanTimeLoss="-1.00" meanOccupancy="0.00" maxOccupancy="0.00" meanMaxJamLengthInVehicles="0.00" meanMaxJamLengthInMeters="0.00" maxJamLengthInVehicles="0" maxJamLengthInMeters="0.00" jamLengthInVehiclesSum="0" jamLengthInMetersSum="0.00" meanHaltingDuration="0.00" maxHaltingDuration="0.00" haltingDurationSum="0.00" meanIntervalHaltingDuration="0.00" maxIntervalHaltingDuration="0.00" intervalHaltingDurationSum="0.00" startedHalts="0.00" meanVehicleNumber="0.00" maxVehicleNumber="0" />
   <interval begin="21700.00" end="21800.00" id="e2_L250_0_2" sampledSeconds="0.00" nVehEntered="0" nVehLeft="0" nVehSeen="0" meanSpeed="-1.00" meanTimeLoss="-1.00" meanOccupancy="0.00" maxOccupancy="0.00" meanMaxJamLengthInVehicles="0.00" meanMaxJamLengthInMeters="0.00" maxJamLengthInVehicles="0" maxJamLengthInMeters="0.00" jamLengthInVehiclesSum="0" jamLengthInMetersSum="0.00" meanHaltingDuration="0.00" maxHaltingDuration="0.00" haltingDurationSum="0.00" meanIntervalHaltingDuration="0.00" maxIntervalHaltingDuration="0.00" intervalHaltingDurationSum="0.00" startedHalts="0.00" meanVehicleNumber="0.00" maxVehicleNumber="0" />
   <interval begin="21800.00" end="21900.00" id="e2_L250_0_2" sampledSeconds="184.68" nVehEntered="19" nVehLeft="16" nVehSeen="19" meanSpeed="11.76" meanTimeLoss="0.58" meanOccupancy="5.93" maxOccupancy="16.55" meanMaxJamLengthInVehicles="0.00" meanMaxJamLengthInMeters="0.00" maxJamLengthInVehicles="0" maxJamLengthInMeters="0.00" jamLengthInVehiclesSum="0" jamLengthInMetersSum="0.00" meanHaltingDuration="0.00" maxHaltingDuration="0.00" haltingDurationSum="0.00" meanIntervalHaltingDuration="0.00" maxIntervalHaltingDuration="0.00" intervalHaltingDurationSum="0.00" startedHalts="0.00" meanVehicleNumber="1.96" maxVehicleNumber="6" />
   <interval begin="21900.00" end="22000.00" id="e2_L250_0_2" sampledSeconds="316.98" nVehEntered="32" nVehLeft="33" nVehSeen="35" meanSpeed="11.63" meanTimeLoss="0.58" meanOccupancy="10.10" maxOccupancy="33.11" meanMaxJamLengthInVehicles="0.00" meanMaxJamLengthInMeters="0.00" maxJamLengthInVehicles="0" maxJamLengthInMeters="0.00" jamLengthInVehiclesSum="0" jamLengthInMetersSum="0.00" meanHaltingDuration="0.00" maxHaltingDuration="0.00" haltingDurationSum="0.00" meanIntervalHaltingDuration="0.00" maxIntervalHaltingDuration="0.00" intervalHaltingDurationSum="0.00" startedHalts="0.00" meanVehicleNumber="3.38" maxVehicleNumber="10" />
   <interval begin="22000.00" end="22100.00" id="e2_L250_0_2" sampledSeconds="391.67" nVehEntered="42" nVehLeft="40" nVehSeen="44" meanSpeed="11.61" meanTimeLoss="0.63" meanOccupancy="12.47" maxOccupancy="26.49" meanMaxJamLengthInVehicles="0.00" meanMaxJamLengthInMeters="0.00" maxJamLengthInVehicles="0" maxJamLengthInMeters="0.00" jamLengthInVehiclesSum="0" jamLengthInMetersSum="0.00" meanHaltingDuration="0.00" maxHaltingDuration="0.00" haltingDurationSum="0.00" meanIntervalHaltingDuration="0.00" maxIntervalHaltingDuration="0.00" intervalHaltingDurationSum="0.00" startedHalts="0.00" meanVehicleNumber="4.21" maxVehicleNumber="9" />
   <interval begin="22100.00" end="22200.00" id="e2_L250_0_2" sampledSeconds="194.32" nVehEntered="21" nVehLeft="21" nVehSeen="25" meanSpeed="11.69" meanTimeLoss="0.50" meanOccupancy="6.18" maxOccupancy="16.55" meanMaxJamLengthInVehicles="0.00" meanMaxJamLengthInMeters="0.00" maxJamLengthInVehicles="0" maxJamLengthInMeters="0.00" jamLengthInVehiclesSum="0" jamLengthInMetersSum="0.00" meanHaltingDuration="0.00" maxHaltingDuration="0.00" haltingDurationSum="0.00" meanIntervalHaltingDuration="0.00" maxIntervalHaltingDuration="0.00" intervalHaltingDurationSum="0.00" startedHalts="0.00" meanVehicleNumber="2.08" maxVehicleNumber="6" />
   <interval begin="22200.00" end="22300.00" id="e2_L250_0_2" sampledSeconds="398.36" nVehEntered="40" nVehLeft="44" nVehSeen="44" meanSpeed="11.50" meanTimeLoss="0.67" meanOccupancy="12.69" maxOccupancy="23.55" meanMaxJamLengthInVehicles="0.00" meanMaxJamLengthInMeters="0.00" maxJamLengthInVehicles="0" maxJamLengthInMeters="0.00" jamLengthInVehiclesSum="0" jamLengthInMetersSum="0.00" meanHaltingDuration="0.00" maxHaltingDuration="0.00" haltingDurationSum="0.00" meanIntervalHaltingDuration="0.00" maxIntervalHaltingDuration="0.00" intervalHaltingDurationSum="0.00" startedHalts="0.00" meanVehicleNumber="4.27" maxVehicleNumber="8" />
   <interval begin="22300.00" end="22400.00" id="e2_L250_0_2" sampledSeconds="255.85" nVehEntered="31" nVehLeft="25" nVehSeen="31" meanSpeed="11.61" meanTimeLoss="0.59" meanOccupancy="8.28" maxOccupancy="23.18" meanMaxJamLengthInVehicles="0.00" meanMaxJamLengthInMeters="0.00" maxJamLengthInVehicles="0" maxJamLengthInMeters="0.00" jamLengthInVehiclesSum="0" jamLengthInMetersSum="0.00" meanHaltingDuration="0.00" maxHaltingDuration="0.00" haltingDurationSum="0.00" meanIntervalHaltingDuration="0.00" maxIntervalHaltingDuration="0.00" intervalHaltingDurationSum="0.00" startedHalts="0.00" meanVehicleNumber="2.75" maxVehicleNumber="8" />
   <interval begin="22400.00" end="22500.00" id="e2_L250_0_2" sampledSeconds="141.19" nVehEntered="12" nVehLeft="18" nVehSeen="18" meanSpeed="11.79" meanTimeLoss="0.45" meanOccupancy="4.43" maxOccupancy="17.84" meanMaxJamLengthInVehicles="0.00" meanMaxJamLengthInMeters="0.00" maxJamLengthInVehicles="0" maxJamLengthInMeters="0.00" jamLengthInVehiclesSum="0" jamLengthInMetersSum="0.00" meanHaltingDuration="0.00" maxHaltingDuration="0.00" haltingDurationSum="0.00" meanIntervalHaltingDuration="0.00" maxIntervalHaltingDuration="0.00" intervalHaltingDurationSum="0.00" startedHalts="0.00" meanVehicleNumber="1.51" maxVehicleNumber="6" />
   <interval begin="22500.00" end="22600.00" id="e2_L250_0_2" sampledSeconds="205.41" nVehEntered="19" nVehLeft="19" nVehSeen="19" meanSpeed="11.67" meanTimeLoss="0.68" meanOccupancy="6.61" maxOccupancy="17.20" meanMaxJamLengthInVehicles="0.00" meanMaxJamLengthInMeters="0.00" maxJamLengthInVehicles="0" maxJamLengthInMeters="0.00" jamLengthInVehiclesSum="0" jamLengthInMetersSum="0.00" meanHaltingDuration="0.00" maxHaltingDuration="0.00" haltingDurationSum="0.00" meanIntervalHaltingDuration="0.00" maxIntervalHaltingDuration="0.00" intervalHaltingDurationSum="0.00" startedHalts="0.00" meanVehicleNumber="2.19" maxVehicleNumber="6" />
   <interval begin="22600.00" end="22700.00" id="e2_L250_0_2" sampledSeconds="351.07" nVehEntered="38" nVehLeft="35" nVehSeen="38" meanSpeed="11.23" meanTimeLoss="0.90" meanOccupancy="11.30" maxOccupancy="20.70" meanMaxJamLengthInVehicles="0.00" meanMaxJamLengthInMeters="0.00" maxJamLengthInVehicles="0" maxJamLengthInMeters="0.00" jamLengthInVehiclesSum="0" jamLengthInMetersSum="0.00" meanHaltingDuration="0.00" maxHaltingDuration="0.00" haltingDurationSum="0.00" meanIntervalHaltingDuration="0.00" maxIntervalHaltingDuration="0.00" intervalHaltingDurationSum="0.00" startedHalts="0.00" meanVehicleNumber="3.77" maxVehicleNumber="7" />
   <interval begin="22700.00" end="22800.00" id="e2_L250_0_2" sampledSeconds="424.80" nVehEntered="17" nVehLeft="9" nVehSeen="20" meanSpeed="3.08" meanTimeLoss="15.95" meanOccupancy="11.30" maxOccupancy="33.58" meanMaxJamLengthInVehicles="2.71" meanMaxJamLengthInMeters="16.02" maxJamLengthInVehicles="8" maxJamLengthInMeters="39.58" jamLengthInVehiclesSum="279" jamLengthInMetersSum="1630.22" meanHaltingDuration="35.88" maxHaltingDuration="97.00" haltingDurationSum="287.00" meanIntervalHaltingDuration="35.88" maxIntervalHaltingDuration="97.00" intervalHaltingDurationSum="287.00" startedHalts="8.00" meanVehicleNumber="4.29" maxVehicleNumber="11" />
   <interval begin="22800.00" end="22900.00" id="e2_L250_0_2" sampledSeconds="1981.71" nVehEntered="16" nVehLeft="4" nVehSeen="27" meanSpeed="0.50" meanTimeLoss="70.44" meanOccupancy="62.57" maxOccupancy="75.95" meanMaxJamLengthInVehicles="17.19" meanMaxJamLengthInMeters="104.31" maxJamLengthInVehicles="23" maxJamLengthInMeters="143.50" jamLengthInVehiclesSum="1850" jamLengthInMetersSum="11205.16" meanHaltingDuration="93.56" maxHaltingDuration="197.00" haltingDurationSum="2152.00" meanIntervalHaltingDuration="81.09" maxIntervalHaltingDuration="100.00" intervalHaltingDurationSum="1865.00" startedHalts="15.00" meanVehicleNumber="19.89" maxVehicleNumber="24" />
   <interval begin="22900.00" end="23000.00" id="e2_L250_0_2" sampledSeconds="2323.21" nVehEntered="2" nVehLeft="2" nVehSeen="25" meanSpeed="0.12" meanTimeLoss="92.04" meanOccupancy="73.37" maxOccupancy="79.26" meanMaxJamLengthInVehicles="21.91" meanMaxJamLengthInMeters="136.57" maxJamLengthInVehicles="23" maxJamLengthInMeters="143.50" jamLengthInVehiclesSum="2300" jamLengthInMetersSum="14293.87" meanHaltingDuration="193.56" maxHaltingDuration="297.00" haltingDurationSum="4452.00" meanIntervalHaltingDuration="100.00" maxIntervalHaltingDuration="100.00" intervalHaltingDurationSum="2300.00" startedHalts="0.00" meanVehicleNumber="23.24" maxVehicleNumber="25" />
   <interval begin="23000.00" end="23100.00" id="e2_L250_0_2" sampledSeconds="2458.15" nVehEntered="12" nVehLeft="12" nVehSeen="35" meanSpeed="0.68" meanTimeLoss="66.41" meanOccupancy="77.61" maxOccupancy="98.47" meanMaxJamLengthInVehicles="17.88" meanMaxJamLengthInMeters="110.30" maxJamLengthInVehicles="23" maxJamLengthInMeters="143.50" jamLengthInVehiclesSum="2300" jamLengthInMetersSum="13964.25" meanHaltingDuration="293.56" maxHaltingDuration="397.00" haltingDurationSum="6752.00" meanIntervalHaltingDuration="100.00" maxIntervalHaltingDuration="100.00" intervalHaltingDurationSum="2300.00" startedHalts="0.00" meanVehicleNumber="24.64" maxVehicleNumber="31" />
   <interval begin="23100.00" end="23200.00" id="e2_L250_0_2" sampledSeconds="2300.00" nVehEntered="0" nVehLeft="0" nVehSeen="23" meanSpeed="0.00" meanTimeLoss="100.00" meanOccupancy="72.64" maxOccupancy="72.64" meanMaxJamLengthInVehicles="23.00" meanMaxJamLengthInMeters="143.50" maxJamLengthInVehicles="23" maxJamLengthInMeters="143.50" jamLengthInVehiclesSum="2300" jamLengthInMetersSum="14349.99" meanHaltingDuration="393.56" maxHaltingDuration="497.00" haltingDurationSum="9052.00" meanIntervalHaltingDuration="100.00" maxIntervalHaltingDuration="100.00" intervalHaltingDurationSum="2300.00" startedHalts="0.00" meanVehicleNumber="23.00" maxVehicleNumber="23" />
   <interval begin="23200.00" end="23300.00" id="e2_L250_0_2" sampledSeconds="2354.00" nVehEntered="1" nVehLeft="0" nVehSeen="24" meanSpeed="0.02" meanTimeLoss="97.91" meanOccupancy="74.43" maxOccupancy="75.95" meanMaxJamLengthInVehicles="22.92" meanMaxJamLengthInMeters="139.96" maxJamLengthInVehicles="24" maxJamLengthInMeters="143.50" jamLengthInVehiclesSum="2344" jamLengthInMetersSum="14326.28" meanHaltingDuration="474.88" maxHaltingDuration="597.00" haltingDurationSum="11397.00" meanIntervalHaltingDuration="97.71" maxIntervalHaltingDuration="100.00" intervalHaltingDurationSum="2345.00" startedHalts="1.00" meanVehicleNumber="23.54" maxVehicleNumber="24" />
   <interval begin="23300.00" end="23400.00" id="e2_L250_0_2" sampledSeconds="2400.00" nVehEntered="0" nVehLeft="0" nVehSeen="24" meanSpeed="0.00" meanTimeLoss="100.00" meanOccupancy="75.95" maxOccupancy="75.95" meanMaxJamLengthInVehicles="24.00" meanMaxJamLengthInMeters="143.50" maxJamLengthInVehicles="24" maxJamLengthInMeters="143.50" jamLengthInVehiclesSum="2400" jamLengthInMetersSum="14349.99" meanHaltingDuration="574.88" maxHaltingDuration="697.00" haltingDurationSum="13797.00" meanIntervalHaltingDuration="100.00" maxIntervalHaltingDuration="100.00" intervalHaltingDurationSum="2400.00" startedHalts="0.00" meanVehicleNumber="24.00" maxVehicleNumber="24" />
   <interval begin="23400.00" end="23500.00" id="e2_L250_0_2" sampledSeconds="2400.00" nVehEntered="0" nVehLeft="0" nVehSeen="24" meanSpeed="0.00" meanTimeLoss="100.00" meanOccupancy="75.95" maxOccupancy="75.95" meanMaxJamLengthInVehicles="24.00" meanMaxJamLengthInMeters="143.50" maxJamLengthInVehicles="24" maxJamLengthInMeters="143.50" jamLengthInVehiclesSum="2400" jamLengthInMetersSum="14349.99" meanHaltingDuration="674.88" maxHaltingDuration="797.00" haltingDurationSum="16197.00" meanIntervalHaltingDuration="100.00" maxIntervalHaltingDuration="100.00" intervalHaltingDurationSum="2400.00" startedHalts="0.00" meanVehicleNumber="24.00" maxVehicleNumber="24" />
   <interval begin="23500.00" end="23600.00" id="e2_L250_0_2" sampledSeconds="2316.00" nVehEntered="0" nVehLeft="6" nVehSeen="24" meanSpeed="0.15" meanTimeLoss="95.34" meanOccupancy="73.81" maxOccupancy="75.95" meanMaxJamLengthInVehicles="21.35" meanMaxJamLengthInMeters="128.97" maxJamLengthInVehicles="24" maxJamLengthInMeters="144.23" jamLengthInVehiclesSum="2188" jamLengthInMetersSum="13153.81" meanHaltingDuration="319.11" maxHaltingDuration="868.00" haltingDurationSum="17551.00" meanIntervalHaltingDuration="39.11" maxIntervalHaltingDuration="100.00" intervalHaltingDurationSum="2151.00" startedHalts="32.00" meanVehicleNumber="23.18" maxVehicleNumber="24" />
   <interval begin="23600.00" end="23700.00" id="e2_L250_0_2" sampledSeconds="2244.62" nVehEntered="7" nVehLeft="1" nVehSeen="25" meanSpeed="0.30" meanTimeLoss="87.61" meanOccupancy="71.12" maxOccupancy="75.95" meanMaxJamLengthInVehicles="18.89" meanMaxJamLengthInMeters="113.03" maxJamLengthInVehicles="24" maxJamLengthInMeters="143.50" jamLengthInVehiclesSum="1963" jamLengthInMetersSum="11653.13" meanHaltingDuration="73.50" maxHaltingDuration="910.00" haltingDurationSum="6248.00" meanIntervalHaltingDuration="23.96" maxIntervalHaltingDuration="100.00" intervalHaltingDurationSum="2037.00" startedHalts="75.00" meanVehicleNumber="22.50" maxVehicleNumber="24" />
   <interval begin="23700.00" end="23800.00" id="e2_L250_0_2" sampledSeconds="2400.00" nVehEntered="0" nVehLeft="0" nVehSeen="24" meanSpeed="0.00" meanTimeLoss="100.00" meanOccupancy="75.95" maxOccupancy="75.95" meanMaxJamLengthInVehicles="24.00" meanMaxJamLengthInMeters="143.50" maxJamLengthInVehicles="24" maxJamLengthInMeters="143.50" jamLengthInVehiclesSum="2400" jamLengthInMetersSum="14349.95" meanHaltingDuration="262.75" maxHaltingDuration="1010.00" haltingDurationSum="6306.00" meanIntervalHaltingDuration="100.00" maxIntervalHaltingDuration="100.00" intervalHaltingDurationSum="2400.00" startedHalts="0.00" meanVehicleNumber="24.00" maxVehicleNumber="24" />
   <interval begin="23800.00" end="23900.00" id="e2_L250_0_2" sampledSeconds="2400.00" nVehEntered="0" nVehLeft="0" nVehSeen="24" meanSpeed="0.00" meanTimeLoss="100.00" meanOccupancy="75.95" maxOccupancy="75.95" meanMaxJamLengthInVehicles="24.00" meanMaxJamLengthInMeters="143.50" maxJamLengthInVehicles="24" maxJamLengthInMeters="143.50" jamLengthInVehiclesSum="2400" jamLengthInMetersSum="14349.95" meanHaltingDuration="362.75" maxHaltingDuration="1110.00" haltingDurationSum="8706.00" meanIntervalHaltingDuration="100.00" maxIntervalHaltingDuration="100.00" intervalHaltingDurationSum="2400.00" startedHalts="0.00" meanVehicleNumber="24.00" maxVehicleNumber="24" />
   <interval begin="23900.00" end="24000.00" id="e2_L250_0_2" sampledSeconds="2298.64" nVehEntered="1" nVehLeft="4" nVehSeen="25" meanSpeed="0.17" meanTimeLoss="90.69" meanOccupancy="73.34" maxOccupancy="75.95" meanMaxJamLengthInVehicles="20.24" meanMaxJamLengthInMeters="122.46" maxJamLengthInVehicles="24" maxJamLengthInMeters="144.35" jamLengthInVehiclesSum="2162" jamLengthInMetersSum="13018.38" meanHaltingDuration="137.18" maxHaltingDuration="1210.00" haltingDurationSum="10563.00" meanIntervalHaltingDuration="27.93" maxIntervalHaltingDuration="100.00" intervalHaltingDurationSum="2151.00" startedHalts="57.00" meanVehicleNumber="23.00" maxVehicleNumber="24" />
   <interval begin="24000.00" end="24100.00" id="e2_L250_0_2" sampledSeconds="2340.40" nVehEntered="3" nVehLeft="0" nVehSeen="24" meanSpeed="0.08" meanTimeLoss="96.87" meanOccupancy="74.08" maxOccupancy="75.95" meanMaxJamLengthInVehicles="22.58" meanMaxJamLengthInMeters="135.68" maxJamLengthInVehicles="24" maxJamLengthInMeters="144.03" jamLengthInVehiclesSum="2296" jamLengthInMetersSum="13775.77" meanHaltingDuration="135.93" maxHaltingDuration="1310.00" haltingDurationSum="5573.00" meanIntervalHaltingDuration="56.59" maxIntervalHaltingDuration="100.00" intervalHaltingDurationSum="2320.00" startedHalts="24.00" meanVehicleNumber="23.41" maxVehicleNumber="24" />
   <interval begin="24100.00" end="24200.00" id="e2_L250_0_2" sampledSeconds="2344.97" nVehEntered="2" nVehLeft="2" nVehSeen="26" meanSpeed="0.08" meanTimeLoss="89.62" meanOccupancy="74.39" maxOccupancy="75.95" meanMaxJamLengthInVehicles="23.37" meanMaxJamLengthInMeters="141.92" maxJamLengthInVehicles="24" maxJamLengthInMeters="144.30" jamLengthInVehiclesSum="2344" jamLengthInMetersSum="14225.65" meanHaltingDuration="316.75" maxHaltingDuration="1410.00" haltingDurationSum="7602.00" meanIntervalHaltingDuration="96.96" maxIntervalHaltingDuration="100.00" intervalHaltingDurationSum="2327.00" startedHalts="2.00" meanVehicleNumber="23.46" maxVehicleNumber="24" />
   <interval begin="24200.00" end="24300.00" id="e2_L250_0_2" sampledSeconds="2333.78" nVehEntered="1" nVehLeft="2" nVehSeen="25" meanSpeed="0.10" meanTimeLoss="92.64" meanOccupancy="74.45" maxOccupancy="75.95" meanMaxJamLengthInVehicles="23.20" meanMaxJamLengthInMeters="141.47" maxJamLengthInVehicles="24" maxJamLengthInMeters="144.51" jamLengthInVehiclesSum="2332" jamLengthInMetersSum="14211.28" meanHaltingDuration="391.21" maxHaltingDuration="1510.00" haltingDurationSum="9389.00" meanIntervalHaltingDuration="91.96" maxIntervalHaltingDuration="100.00" intervalHaltingDurationSum="2207.00" startedHalts="2.00" meanVehicleNumber="23.35" maxVehicleNumber="24" />
   <interval begin="24300.00" end="24400.00" id="e2_L250_0_2" sampledSeconds="2388.14" nVehEntered="1" nVehLeft="0" nVehSeen="24" meanSpeed="0.03" meanTimeLoss="99.29" meanOccupancy="75.44" maxOccupancy="75.95" meanMaxJamLengthInVehicles="23.88" meanMaxJamLengthInMeters="143.39" maxJamLengthInVehicles="24" maxJamLengthInMeters="143.50" jamLengthInVehiclesSum="2388" jamLengthInMetersSum="14338.95" meanHaltingDuration="478.71" maxHaltingDuration="1610.00" haltingDurationSum="11489.00" meanIntervalHaltingDuration="99.54" maxIntervalHaltingDuration="100.00" intervalHaltingDurationSum="2389.00" startedHalts="1.00" meanVehicleNumber="23.89" maxVehicleNumber="24" />
   <interval begin="24400.00" end="24500.00" id="e2_L250_0_2" sampledSeconds="2400.00" nVehEntered="0" nVehLeft="0" nVehSeen="24" meanSpeed="0.00" meanTimeLoss="100.00" meanOccupancy="75.95" maxOccupancy="75.95" meanMaxJamLengthInVehicles="24.00" meanMaxJamLengthInMeters="143.50" maxJamLengthInVehicles="24" maxJamLengthInMeters="143.50" jamLengthInVehiclesSum="2400" jamLengthInMetersSum="14350.00" meanHaltingDuration="578.71" maxHaltingDuration="1710.00" haltingDurationSum="13889.00" meanIntervalHaltingDuration="100.00" maxIntervalHaltingDuration="100.00" intervalHaltingDurationSum="2400.00" startedHalts="0.00" meanVehicleNumber="24.00" maxVehicleNumber="24" />
   <interval begin="24500.00" end="24600.00" id="e2_L250_0_2" sampledSeconds="2400.00" nVehEntered="0" nVehLeft="0" nVehSeen="24" meanSpeed="0.00" meanTimeLoss="100.00" meanOccupancy="75.95" maxOccupancy="75.95" meanMaxJamLengthInVehicles="24.00" meanMaxJamLengthInMeters="143.50" maxJamLengthInVehicles="24" maxJamLengthInMeters="143.50" jamLengthInVehiclesSum="2400" jamLengthInMetersSum="14350.00" meanHaltingDuration="678.71" maxHaltingDuration="1810.00" haltingDurationSum="16289.00" meanIntervalHaltingDuration="100.00" maxIntervalHaltingDuration="100.00" intervalHaltingDurationSum="2400.00" startedHalts="0.00" meanVehicleNumber="24.00" maxVehicleNumber="24" />
   <interval begin="24600.00" end="24700.00" id="e2_L250_0_2" sampledSeconds="2400.00" nVehEntered="0" nVehLeft="0" nVehSeen="24" meanSpeed="0.00" meanTimeLoss="100.00" meanOccupancy="75.95" maxOccupancy="75.95" meanMaxJamLengthInVehicles="24.00" meanMaxJamLengthInMeters="143.50" maxJamLengthInVehicles="24" maxJamLengthInMeters="143.50" jamLengthInVehiclesSum="2400" jamLengthInMetersSum="14350.00" meanHaltingDuration="778.71" maxHaltingDuration="1910.00" haltingDurationSum="18689.00" meanIntervalHaltingDuration="100.00" maxIntervalHaltingDuration="100.00" intervalHaltingDurationSum="2400.00" startedHalts="0.00" meanVehicleNumber="24.00" maxVehicleNumber="24" />
   <interval begin="24700.00" end="24800.00" id="e2_L250_0_2" sampledSeconds="2400.00" nVehEntered="0" nVehLeft="0" nVehSeen="24" meanSpeed="0.00" meanTimeLoss="100.00" meanOccupancy="75.95" maxOccupancy="75.95" meanMaxJamLengthInVehicles="24.00" meanMaxJamLengthInMeters="143.50" maxJamLengthInVehicles="24" maxJamLengthInMeters="143.50" jamLengthInVehiclesSum="2400" jamLengthInMetersSum="14350.00" meanHaltingDuration="878.71" maxHaltingDuration="2010.00" haltingDurationSum="21089.00" meanIntervalHaltingDuration="100.00" maxIntervalHaltingDuration="100.00" intervalHaltingDurationSum="2400.00" startedHalts="0.00" meanVehicleNumber="24.00" maxVehicleNumber="24" />
   <interval begin="24800.00" end="24900.00" id="e2_L250_0_2" sampledSeconds="2400.00" nVehEntered="0" nVehLeft="0" nVehSeen="24" meanSpeed="0.00" meanTimeLoss="99.99" meanOccupancy="75.93" maxOccupancy="75.95" meanMaxJamLengthInVehicles="24.00" meanMaxJamLengthInMeters="143.52" maxJamLengthInVehicles="24" maxJamLengthInMeters="143.83" jamLengthInVehiclesSum="2400" jamLengthInMetersSum="14352.18" meanHaltingDuration="978.71" maxHaltingDuration="2110.00" haltingDurationSum="23489.00" meanIntervalHaltingDuration="100.00" maxIntervalHaltingDuration="100.00" intervalHaltingDurationSum="2400.00" startedHalts="0.00" meanVehicleNumber="24.00" maxVehicleNumber="24" />
   <interval begin="24900.00" end="25000.00" id="e2_L250_0_2" sampledSeconds="2308.38" nVehEntered="0" nVehLeft="1" nVehSeen="24" meanSpeed="0.01" meanTimeLoss="96.13" meanOccupancy="75.92" maxOccupancy="76.12" meanMaxJamLengthInVehicles="23.09" meanMaxJamLengthInMeters="137.99" maxJamLengthInVehicles="24" maxJamLengthInMeters="144.17" jamLengthInVehiclesSum="2309" jamLengthInMetersSum="13798.70" meanHaltingDuration="1081.83" maxHaltingDuration="2210.00" haltingDurationSum="24882.00" meanIntervalHaltingDuration="100.00" maxIntervalHaltingDuration="100.00" intervalHaltingDurationSum="2300.00" startedHalts="0.00" meanVehicleNumber="23.09" maxVehicleNumber="24" />
   <interval begin="25000.00" end="25100.00" id="e2_L250_0_2" sampledSeconds="2300.00" nVehEntered="0" nVehLeft="0" nVehSeen="23" meanSpeed="0.00" meanTimeLoss="100.00" meanOccupancy="76.12" maxOccupancy="76.12" meanMaxJamLengthInVehicles="23.00" meanMaxJamLengthInMeters="137.41" maxJamLengthInVehicles="23" maxJamLengthInMeters="137.41" jamLengthInVehiclesSum="2300" jamLengthInMetersSum="13740.89" meanHaltingDuration="1181.83" maxHaltingDuration="2310.00" haltingDurationSum="27182.00" meanIntervalHaltingDuration="100.00" maxIntervalHaltingDuration="100.00" intervalHaltingDurationSum="2300.00" startedHalts="0.00" meanVehicleNumber="23.00" maxVehicleNumber="23" />
   <interval begin="25100.00" end="25200.00" id="e2_L250_0_2" sampledSeconds="2300.00" nVehEntered="0" nVehLeft="0" nVehSeen="23" meanSpeed="0.00" meanTimeLoss="100.00" meanOccupancy="76.12" maxOccupancy="76.12" meanMaxJamLengthInVehicles="23.00" meanMaxJamLengthInMeters="137.41" maxJamLengthInVehicles="23" maxJamLengthInMeters="137.41" jamLengthInVehiclesSum="2300" jamLengthInMetersSum="13740.89" meanHaltingDuration="1281.83" maxHaltingDuration="2410.00" haltingDurationSum="29482.00" meanIntervalHaltingDuration="100.00" maxIntervalHaltingDuration="100.00" intervalHaltingDurationSum="2300.00" startedHalts="0.00" meanVehicleNumber="23.00" maxVehicleNumber="23" />
   <interval begin="25200.00" end="25300.00" id="e2_L250_0_2" sampledSeconds="2300.00" nVehEntered="0" nVehLeft="0" nVehSeen="23" meanSpeed="0.00" meanTimeLoss="100.00" meanOccupancy="76.12" maxOccupancy="76.12" meanMaxJamLengthInVehicles="23.00" meanMaxJamLengthInMeters="137.41" maxJamLengthInVehicles="23" maxJamLengthInMeters="137.41" jamLengthInVehiclesSum="2300" jamLengthInMetersSum="13740.89" meanHaltingDuration="1381.83" maxHaltingDuration="2510.00" haltingDurationSum="31782.00" meanIntervalHaltingDuration="100.00" maxIntervalHaltingDuration="100.00" intervalHaltingDurationSum="2300.00" startedHalts="0.00" meanVehicleNumber="23.00" maxVehicleNumber="23" />
   <interval begin="25300.00" end="25400.00" id="e2_L250_0_2" sampledSeconds="2300.00" nVehEntered="0" nVehLeft="0" nVehSeen="23" meanSpeed="0.00" meanTimeLoss="100.00" meanOccupancy="76.12" maxOccupancy="76.12" meanMaxJamLengthInVehicles="23.00" meanMaxJamLengthInMeters="137.41" maxJamLengthInVehicles="23" maxJamLengthInMeters="137.41" jamLengthInVehiclesSum="2300" jamLengthInMetersSum="13740.91" meanHaltingDuration="1481.83" maxHaltingDuration="2610.00" haltingDurationSum="34082.00" meanIntervalHaltingDuration="100.00" maxIntervalHaltingDuration="100.00" intervalHaltingDurationSum="2300.00" startedHalts="0.00" meanVehicleNumber="23.00" maxVehicleNumber="23" />
   <interval begin="25400.00" end="25500.00" id="e2_L250_0_2" sampledSeconds="2300.00" nVehEntered="0" nVehLeft="0" nVehSeen="23" meanSpeed="0.00" meanTimeLoss="100.00" meanOccupancy="76.12" maxOccupancy="76.12" meanMaxJamLengthInVehicles="23.00" meanMaxJamLengthInMeters="137.41" maxJamLengthInVehicles="23" maxJamLengthInMeters="137.41" jamLengthInVehiclesSum="2300" jamLengthInMetersSum="13740.92" meanHaltingDuration="1581.83" maxHaltingDuration="2710.00" haltingDurationSum="36382.00" meanIntervalHaltingDuration="100.00" maxIntervalHaltingDuration="100.00" intervalHaltingDurationSum="2300.00" startedHalts="0.00" meanVehicleNumber="23.00" maxVehicleNumber="23" />
   <interval begin="25500.00" end="25600.00" id="e2_L250_0_2" sampledSeconds="2261.86" nVehEntered="1" nVehLeft="3" nVehSeen="24" meanSpeed="0.11" meanTimeLoss="93.43" meanOccupancy="74.47" maxOccupancy="76.12" meanMaxJamLengthInVehicles="22.32" meanMaxJamLengthInMeters="136.20" maxJamLengthInVehicles="23" maxJamLengthInMeters="144.58" jamLengthInVehiclesSum="2240" jamLengthInMetersSum="13654.96" meanHaltingDuration="1277.48" maxHaltingDuration="2810.00" haltingDurationSum="37047.00" meanIntervalHaltingDuration="74.86" maxIntervalHaltingDuration="100.00" intervalHaltingDurationSum="2171.00" startedHalts="7.00" meanVehicleNumber="22.64" maxVehicleNumber="23" />
   <interval begin="25600.00" end="25700.00" id="e2_L250_0_2" sampledSeconds="1979.64" nVehEntered="12" nVehLeft="10" nVehSeen="33" meanSpeed="0.87" meanTimeLoss="55.80" meanOccupancy="63.41" maxOccupancy="73.19" meanMaxJamLengthInVehicles="9.43" meanMaxJamLengthInMeters="58.33" maxJamLengthInVehicles="23" maxJamLengthInMeters="143.67" jamLengthInVehiclesSum="1310" jamLengthInMetersSum="7845.04" meanHaltingDuration="127.77" maxHaltingDuration="2910.00" haltingDurationSum="26193.00" meanIntervalHaltingDuration="7.22" maxIntervalHaltingDuration="100.00" intervalHaltingDurationSum="1480.00" startedHalts="191.00" meanVehicleNumber="19.89" maxVehicleNumber="23" />
   <interval begin="25700.00" end="25800.00" id="e2_L250_0_2" sampledSeconds="2035.12" nVehEntered="11" nVehLeft="14" nVehSeen="34" meanSpeed="0.76" meanTimeLoss="56.24" meanOccupancy="65.18" maxOccupancy="73.27" meanMaxJamLengthInVehicles="9.88" meanMaxJamLengthInMeters="62.43" maxJamLengthInVehicles="24" maxJamLengthInMeters="144.19" jamLengthInVehiclesSum="1388" jamLengthInMetersSum="8227.96" meanHaltingDuration="50.18" maxHaltingDuration="2986.00" haltingDurationSum="10338.00" meanIntervalHaltingDuration="7.50" maxIntervalHaltingDuration="100.00" intervalHaltingDurationSum="1544.00" startedHalts="192.00" meanVehicleNumber="20.49" maxVehicleNumber="24" />