<?xml version="1.0" encoding="UTF-8"?>

<!-- generated on Sun Feb 17 15:57:00 2019 by 
<configuration xmlns:xsi="http://www.w3.org/2001/XMLSchema-instance" xsi:noNamespaceSchemaLocation="http://sumo.dlr.de/xsd/Configuration.xsd">

    <input>
        <net-file value="/home/sda/Documents/sumo-sathorn-ray/models/sathorn-morning/sathorn_w_fixed_20160404.net.xml"/>
        <route-files value="/home/sda/Documents/sumo-sathorn-ray/models/sathorn-morning/Great-route/sathorn_w_20160422edit2.rou.xml"/>
        <additional-files value="/home/sda/Documents/sumo-sathorn-ray/models/sathorn-morning/sathon_wide_tls_20160418_edited.add.xml,/home/sda/Documents/sumo-sathorn-ray/detectors/sathorn_w_detectors.add.xml"/>
    </input>

    <time>
        <begin value="21600"/>
        <end value="32400"/>
        <step-length value="1"/>
    </time>

    <processing>
        <no-internal-links value="true"/>
        <ignore-junction-blocker value="-1"/>
        <time-to-teleport value="-1"/>
        <eager-insert value="true"/>
        <time-to-impatience value="300"/>
    </processing>

    <report>
        <no-warnings value="true"/>
    </report>

    <random_number>
        <random value="false"/>
        <seed value="20"/>
    </random_number>

    <gui_only>
        <gui-settings-file value="/home/sda/Documents/sumo-sathorn-ray/gui-settings/gui-settings-file-surasak.xml"/>
        <quit-on-end value="true"/>
        <start value="true"/>
        <tracker-interval value="1"/>
    </gui_only>

</configuration>
-->

<detector xmlns:xsi="http://www.w3.org/2001/XMLSchema-instance" xsi:noNamespaceSchemaLocation="http://sumo.dlr.de/xsd/det_e2_file.xsd">
   <interval begin="21600.00" end="21700.00" id="e2_L40_2_2" sampledSeconds="0.00" nVehEntered="0" nVehLeft="0" nVehSeen="0" meanSpeed="-1.00" meanTimeLoss="-1.00" meanOccupancy="0.00" maxOccupancy="0.00" meanMaxJamLengthInVehicles="0.00" meanMaxJamLengthInMeters="0.00" maxJamLengthInVehicles="0" maxJamLengthInMeters="0.00" jamLengthInVehiclesSum="0" jamLengthInMetersSum="0.00" meanHaltingDuration="0.00" maxHaltingDuration="0.00" haltingDurationSum="0.00" meanIntervalHaltingDuration="0.00" maxIntervalHaltingDuration="0.00" intervalHaltingDurationSum="0.00" startedHalts="0.00" meanVehicleNumber="0.00" maxVehicleNumber="0" />
   <interval begin="21700.00" end="21800.00" id="e2_L40_2_2" sampledSeconds="0.00" nVehEntered="0" nVehLeft="0" nVehSeen="0" meanSpeed="-1.00" meanTimeLoss="-1.00" meanOccupancy="0.00" maxOccupancy="0.00" meanMaxJamLengthInVehicles="0.00" meanMaxJamLengthInMeters="0.00" maxJamLengthInVehicles="0" maxJamLengthInMeters="0.00" jamLengthInVehiclesSum="0" jamLengthInMetersSum="0.00" meanHaltingDuration="0.00" maxHaltingDuration="0.00" haltingDurationSum="0.00" meanIntervalHaltingDuration="0.00" maxIntervalHaltingDuration="0.00" intervalHaltingDurationSum="0.00" startedHalts="0.00" meanVehicleNumber="0.00" maxVehicleNumber="0" />
   <interval begin="21800.00" end="21900.00" id="e2_L40_2_2" sampledSeconds="108.29" nVehEntered="15" nVehLeft="13" nVehSeen="15" meanSpeed="11.77" meanTimeLoss="0.42" meanOccupancy="1.52" maxOccupancy="4.40" meanMaxJamLengthInVehicles="0.00" meanMaxJamLengthInMeters="0.00" maxJamLengthInVehicles="0" maxJamLengthInMeters="0.00" jamLengthInVehiclesSum="0" jamLengthInMetersSum="0.00" meanHaltingDuration="0.00" maxHaltingDuration="0.00" haltingDurationSum="0.00" meanIntervalHaltingDuration="0.00" maxIntervalHaltingDuration="0.00" intervalHaltingDurationSum="0.00" startedHalts="0.00" meanVehicleNumber="1.14" maxVehicleNumber="3" />
   <interval begin="21900.00" end="22000.00" id="e2_L40_2_2" sampledSeconds="232.00" nVehEntered="15" nVehLeft="14" nVehSeen="17" meanSpeed="11.77" meanTimeLoss="0.75" meanOccupancy="3.27" maxOccupancy="5.86" meanMaxJamLengthInVehicles="0.00" meanMaxJamLengthInMeters="0.00" maxJamLengthInVehicles="0" maxJamLengthInMeters="0.00" jamLengthInVehiclesSum="0" jamLengthInMetersSum="0.00" meanHaltingDuration="0.00" maxHaltingDuration="0.00" haltingDurationSum="0.00" meanIntervalHaltingDuration="0.00" maxIntervalHaltingDuration="0.00" intervalHaltingDurationSum="0.00" startedHalts="0.00" meanVehicleNumber="2.41" maxVehicleNumber="4" />
   <interval begin="22000.00" end="22100.00" id="e2_L40_2_2" sampledSeconds="246.28" nVehEntered="17" nVehLeft="16" nVehSeen="20" meanSpeed="11.70" meanTimeLoss="0.72" meanOccupancy="3.52" maxOccupancy="5.86" meanMaxJamLengthInVehicles="0.00" meanMaxJamLengthInMeters="0.00" maxJamLengthInVehicles="0" maxJamLengthInMeters="0.00" jamLengthInVehiclesSum="0" jamLengthInMetersSum="0.00" meanHaltingDuration="0.00" maxHaltingDuration="0.00" haltingDurationSum="0.00" meanIntervalHaltingDuration="0.00" maxIntervalHaltingDuration="0.00" intervalHaltingDurationSum="0.00" startedHalts="0.00" meanVehicleNumber="2.55" maxVehicleNumber="4" />
   <interval begin="22100.00" end="22200.00" id="e2_L40_2_2" sampledSeconds="337.19" nVehEntered="14" nVehLeft="16" nVehSeen="18" meanSpeed="11.82" meanTimeLoss="1.02" meanOccupancy="4.81" maxOccupancy="7.33" meanMaxJamLengthInVehicles="0.00" meanMaxJamLengthInMeters="0.00" maxJamLengthInVehicles="0" maxJamLengthInMeters="0.00" jamLengthInVehiclesSum="0" jamLengthInMetersSum="0.00" meanHaltingDuration="0.00" maxHaltingDuration="0.00" haltingDurationSum="0.00" meanIntervalHaltingDuration="0.00" maxIntervalHaltingDuration="0.00" intervalHaltingDurationSum="0.00" startedHalts="0.00" meanVehicleNumber="3.49" maxVehicleNumber="5" />
   <interval begin="22200.00" end="22300.00" id="e2_L40_2_2" sampledSeconds="385.50" nVehEntered="15" nVehLeft="12" nVehSeen="17" meanSpeed="11.13" meanTimeLoss="2.47" meanOccupancy="5.48" maxOccupancy="7.83" meanMaxJamLengthInVehicles="0.13" meanMaxJamLengthInMeters="0.18" maxJamLengthInVehicles="1" maxJamLengthInMeters="1.42" jamLengthInVehiclesSum="13" jamLengthInMetersSum="17.91" meanHaltingDuration="14.00" maxHaltingDuration="14.00" haltingDurationSum="14.00" meanIntervalHaltingDuration="14.00" maxIntervalHaltingDuration="14.00" intervalHaltingDurationSum="14.00" startedHalts="1.00" meanVehicleNumber="3.96" maxVehicleNumber="6" />
   <interval begin="22300.00" end="22400.00" id="e2_L40_2_2" sampledSeconds="897.24" nVehEntered="14" nVehLeft="7" nVehSeen="19" meanSpeed="4.34" meanTimeLoss="30.82" meanOccupancy="12.17" maxOccupancy="16.56" meanMaxJamLengthInVehicles="5.40" meanMaxJamLengthInMeters="35.33" maxJamLengthInVehicles="9" maxJamLengthInMeters="60.56" jamLengthInVehiclesSum="540" jamLengthInMetersSum="3533.30" meanHaltingDuration="62.44" maxHaltingDuration="114.00" haltingDurationSum="562.00" meanIntervalHaltingDuration="60.89" maxIntervalHaltingDuration="100.00" intervalHaltingDurationSum="548.00" startedHalts="8.00" meanVehicleNumber="9.06" maxVehicleNumber="12" />
   <interval begin="22400.00" end="22500.00" id="e2_L40_2_2" sampledSeconds="1576.00" nVehEntered="15" nVehLeft="7" nVehSeen="27" meanSpeed="1.93" meanTimeLoss="49.32" meanOccupancy="22.12" maxOccupancy="28.29" meanMaxJamLengthInVehicles="12.91" meanMaxJamLengthInMeters="87.90" maxJamLengthInVehicles="17" maxJamLengthInMeters="116.54" jamLengthInVehiclesSum="1291" jamLengthInMetersSum="8789.51" meanHaltingDuration="109.47" maxHaltingDuration="214.00" haltingDurationSum="1861.00" meanIntervalHaltingDuration="76.41" maxIntervalHaltingDuration="100.00" intervalHaltingDurationSum="1299.00" startedHalts="8.00" meanVehicleNumber="15.84" maxVehicleNumber="20" />
   <interval begin="22500.00" end="22600.00" id="e2_L40_2_2" sampledSeconds="2277.37" nVehEntered="14" nVehLeft="8" nVehSeen="34" meanSpeed="1.05" meanTimeLoss="61.34" meanOccupancy="32.41" maxOccupancy="37.08" meanMaxJamLengthInVehicles="20.49" meanMaxJamLengthInMeters="140.90" maxJamLengthInVehicles="24" maxJamLengthInMeters="165.48" jamLengthInVehiclesSum="2049" jamLengthInMetersSum="14089.54" meanHaltingDuration="163.21" maxHaltingDuration="314.00" haltingDurationSum="3917.00" meanIntervalHaltingDuration="85.67" maxIntervalHaltingDuration="100.00" intervalHaltingDurationSum="2056.00" startedHalts="7.00" meanVehicleNumber="22.86" maxVehicleNumber="26" />
   <interval begin="22600.00" end="22700.00" id="e2_L40_2_2" sampledSeconds="2962.30" nVehEntered="15" nVehLeft="8" nVehSeen="41" meanSpeed="0.56" meanTimeLoss="68.98" meanOccupancy="42.43" maxOccupancy="48.81" meanMaxJamLengthInVehicles="27.94" meanMaxJamLengthInMeters="192.97" maxJamLengthInVehicles="32" maxJamLengthInMeters="221.35" jamLengthInVehiclesSum="2794" jamLengthInMetersSum="19296.54" meanHaltingDuration="209.97" maxHaltingDuration="414.00" haltingDurationSum="6719.00" meanIntervalHaltingDuration="87.56" maxIntervalHaltingDuration="100.00" intervalHaltingDurationSum="2802.00" startedHalts="8.00" meanVehicleNumber="29.70" maxVehicleNumber="34" />
   <interval begin="22700.00" end="22800.00" id="e2_L40_2_2" sampledSeconds="3561.99" nVehEntered="25" nVehLeft="22" nVehSeen="58" meanSpeed="0.49" meanTimeLoss="59.02" meanOccupancy="51.29" maxOccupancy="55.38" meanMaxJamLengthInVehicles="28.44" meanMaxJamLengthInMeters="198.19" maxJamLengthInVehicles="37" maxJamLengthInMeters="259.38" jamLengthInVehiclesSum="3119" jamLengthInMetersSum="21685.87" meanHaltingDuration="89.18" maxHaltingDuration="447.00" haltingDurationSum="9453.00" meanIntervalHaltingDuration="29.70" maxIntervalHaltingDuration="91.00" intervalHaltingDurationSum="3148.00" startedHalts="75.00" meanVehicleNumber="35.73" maxVehicleNumber="39" />
   <interval begin="22800.00" end="22900.00" id="e2_L40_2_2" sampledSeconds="4074.61" nVehEntered="15" nVehLeft="7" nVehSeen="51" meanSpeed="0.16" meanTimeLoss="78.85" meanOccupancy="58.46" maxOccupancy="64.65" meanMaxJamLengthInVehicles="39.13" meanMaxJamLengthInMeters="272.16" maxJamLengthInVehicles="44" maxJamLengthInMeters="305.47" jamLengthInVehiclesSum="3924" jamLengthInMetersSum="27278.69" meanHaltingDuration="67.65" maxHaltingDuration="139.00" haltingDurationSum="4465.00" meanIntervalHaltingDuration="60.02" maxIntervalHaltingDuration="100.00" intervalHaltingDurationSum="3961.00" startedHalts="37.00" meanVehicleNumber="40.84" maxVehicleNumber="45" />
   <interval begin="22900.00" end="23000.00" id="e2_L40_2_2" sampledSeconds="4427.84" nVehEntered="5" nVehLeft="3" nVehSeen="49" meanSpeed="0.14" meanTimeLoss="89.37" meanOccupancy="63.90" maxOccupancy="65.96" meanMaxJamLengthInVehicles="40.00" meanMaxJamLengthInMeters="283.05" maxJamLengthInVehicles="46" maxJamLengthInMeters="318.43" jamLengthInVehiclesSum="4349" jamLengthInMetersSum="30790.59" meanHaltingDuration="106.84" maxHaltingDuration="214.00" haltingDurationSum="8654.00" meanIntervalHaltingDuration="53.92" maxIntervalHaltingDuration="100.00" intervalHaltingDurationSum="4368.00" startedHalts="39.00" meanVehicleNumber="44.33" maxVehicleNumber="46" />
   <interval begin="23000.00" end="23100.00" id="e2_L40_2_2" sampledSeconds="4600.00" nVehEntered="0" nVehLeft="0" nVehSeen="46" meanSpeed="0.00" meanTimeLoss="99.98" meanOccupancy="66.11" maxOccupancy="66.15" meanMaxJamLengthInVehicles="46.00" meanMaxJamLengthInMeters="318.43" maxJamLengthInVehicles="46" maxJamLengthInMeters="318.43" jamLengthInVehiclesSum="4600" jamLengthInMetersSum="31843.01" meanHaltingDuration="201.35" maxHaltingDuration="314.00" haltingDurationSum="9262.00" meanIntervalHaltingDuration="100.00" maxIntervalHaltingDuration="100.00" intervalHaltingDurationSum="4600.00" startedHalts="0.00" meanVehicleNumber="46.00" maxVehicleNumber="46" />
   <interval begin="23100.00" end="23200.00" id="e2_L40_2_2" sampledSeconds="4600.00" nVehEntered="0" nVehLeft="0" nVehSeen="46" meanSpeed="0.00" meanTimeLoss="100.00" meanOccupancy="66.15" maxOccupancy="66.15" meanMaxJamLengthInVehicles="46.00" meanMaxJamLengthInMeters="318.43" maxJamLengthInVehicles="46" maxJamLengthInMeters="318.43" jamLengthInVehiclesSum="4600" jamLengthInMetersSum="31843.01" meanHaltingDuration="301.35" maxHaltingDuration="414.00" haltingDurationSum="13862.00" meanIntervalHaltingDuration="100.00" maxIntervalHaltingDuration="100.00" intervalHaltingDurationSum="4600.00" startedHalts="0.00" meanVehicleNumber="46.00" maxVehicleNumber="46" />
   <interval begin="23200.00" end="23300.00" id="e2_L40_2_2" sampledSeconds="4600.00" nVehEntered="0" nVehLeft="0" nVehSeen="46" meanSpeed="0.00" meanTimeLoss="100.00" meanOccupancy="66.15" maxOccupancy="66.15" meanMaxJamLengthInVehicles="46.00" meanMaxJamLengthInMeters="318.43" maxJamLengthInVehicles="46" maxJamLengthInMeters="318.43" jamLengthInVehiclesSum="4600" jamLengthInMetersSum="31843.01" meanHaltingDuration="401.35" maxHaltingDuration="514.00" haltingDurationSum="18462.00" meanIntervalHaltingDuration="100.00" maxIntervalHaltingDuration="100.00" intervalHaltingDurationSum="4600.00" startedHalts="0.00" meanVehicleNumber="46.00" maxVehicleNumber="46" />
   <interval begin="23300.00" end="23400.00" id="e2_L40_2_2" sampledSeconds="4600.00" nVehEntered="0" nVehLeft="0" nVehSeen="46" meanSpeed="0.00" meanTimeLoss="99.98" meanOccupancy="66.08" maxOccupancy="66.15" meanMaxJamLengthInVehicles="46.00" meanMaxJamLengthInMeters="318.64" maxJamLengthInVehicles="46" maxJamLengthInMeters="319.03" jamLengthInVehiclesSum="4600" jamLengthInMetersSum="31863.80" meanHaltingDuration="501.35" maxHaltingDuration="614.00" haltingDurationSum="23062.00" meanIntervalHaltingDuration="100.00" maxIntervalHaltingDuration="100.00" intervalHaltingDurationSum="4600.00" startedHalts="0.00" meanVehicleNumber="46.00" maxVehicleNumber="46" />
   <interval begin="23400.00" end="23500.00" id="e2_L40_2_2" sampledSeconds="4513.20" nVehEntered="1" nVehLeft="1" nVehSeen="47" meanSpeed="0.03" meanTimeLoss="95.77" meanOccupancy="65.88" maxOccupancy="66.01" meanMaxJamLengthInVehicles="45.13" meanMaxJamLengthInMeters="315.02" maxJamLengthInVehicles="46" maxJamLengthInMeters="319.86" jamLengthInVehiclesSum="4513" jamLengthInMetersSum="31502.08" meanHaltingDuration="588.85" maxHaltingDuration="714.00" haltingDurationSum="27087.00" meanIntervalHaltingDuration="97.87" maxIntervalHaltingDuration="100.00" intervalHaltingDurationSum="4502.00" startedHalts="1.00" meanVehicleNumber="45.14" maxVehicleNumber="46" />
   <interval begin="23500.00" end="23600.00" id="e2_L40_2_2" sampledSeconds="4600.00" nVehEntered="0" nVehLeft="0" nVehSeen="46" meanSpeed="0.00" meanTimeLoss="100.00" meanOccupancy="66.10" maxOccupancy="66.10" meanMaxJamLengthInVehicles="46.00" meanMaxJamLengthInMeters="315.04" maxJamLengthInVehicles="46" maxJamLengthInMeters="315.04" jamLengthInVehiclesSum="4600" jamLengthInMetersSum="31504.47" meanHaltingDuration="688.85" maxHaltingDuration="814.00" haltingDurationSum="31687.00" meanIntervalHaltingDuration="100.00" maxIntervalHaltingDuration="100.00" intervalHaltingDurationSum="4600.00" startedHalts="0.00" meanVehicleNumber="46.00" maxVehicleNumber="46" />
   <interval begin="23600.00" end="23700.00" id="e2_L40_2_2" sampledSeconds="4600.00" nVehEntered="0" nVehLeft="0" nVehSeen="46" meanSpeed="0.00" meanTimeLoss="100.00" meanOccupancy="66.10" maxOccupancy="66.10" meanMaxJamLengthInVehicles="46.00" meanMaxJamLengthInMeters="315.04" maxJamLengthInVehicles="46" maxJamLengthInMeters="315.04" jamLengthInVehiclesSum="4600" jamLengthInMetersSum="31504.47" meanHaltingDuration="788.85" maxHaltingDuration="914.00" haltingDurationSum="36287.00" meanIntervalHaltingDuration="100.00" maxIntervalHaltingDuration="100.00" intervalHaltingDurationSum="4600.00" startedHalts="0.00" meanVehicleNumber="46.00" maxVehicleNumber="46" />
   <interval begin="23700.00" end="23800.00" id="e2_L40_2_2" sampledSeconds="4600.00" nVehEntered="0" nVehLeft="0" nVehSeen="46" meanSpeed="0.00" meanTimeLoss="100.00" meanOccupancy="66.10" maxOccupancy="66.10" meanMaxJamLengthInVehicles="46.00" meanMaxJamLengthInMeters="315.04" maxJamLengthInVehicles="46" maxJamLengthInMeters="315.04" jamLengthInVehiclesSum="4600" jamLengthInMetersSum="31504.47" meanHaltingDuration="888.85" maxHaltingDuration="1014.00" haltingDurationSum="40887.00" meanIntervalHaltingDuration="100.00" maxIntervalHaltingDuration="100.00" intervalHaltingDurationSum="4600.00" startedHalts="0.00" meanVehicleNumber="46.00" maxVehicleNumber="46" />
   <interval begin="23800.00" end="23900.00" id="e2_L40_2_2" sampledSeconds="4600.00" nVehEntered="0" nVehLeft="0" nVehSeen="46" meanSpeed="0.00" meanTimeLoss="100.00" meanOccupancy="66.10" maxOccupancy="66.10" meanMaxJamLengthInVehicles="46.00" meanMaxJamLengthInMeters="315.04" maxJamLengthInVehicles="46" maxJamLengthInMeters="315.04" jamLengthInVehiclesSum="4600" jamLengthInMetersSum="31504.47" meanHaltingDuration="988.85" maxHaltingDuration="1114.00" haltingDurationSum="45487.00" meanIntervalHaltingDuration="100.00" maxIntervalHaltingDuration="100.00" intervalHaltingDurationSum="4600.00" startedHalts="0.00" meanVehicleNumber="46.00" maxVehicleNumber="46" />
   <interval begin="23900.00" end="24000.00" id="e2_L40_2_2" sampledSeconds="4600.00" nVehEntered="0" nVehLeft="0" nVehSeen="46" meanSpeed="0.00" meanTimeLoss="100.00" meanOccupancy="66.10" maxOccupancy="66.10" meanMaxJamLengthInVehicles="46.00" meanMaxJamLengthInMeters="315.04" maxJamLengthInVehicles="46" maxJamLengthInMeters="315.04" jamLengthInVehiclesSum="4600" jamLengthInMetersSum="31504.47" meanHaltingDuration="1088.85" maxHaltingDuration="1214.00" haltingDurationSum="50087.00" meanIntervalHaltingDuration="100.00" maxIntervalHaltingDuration="100.00" intervalHaltingDurationSum="4600.00" startedHalts="0.00" meanVehicleNumber="46.00" maxVehicleNumber="46" />
   <interval begin="24000.00" end="24100.00" id="e2_L40_2_2" sampledSeconds="4600.00" nVehEntered="0" nVehLeft="0" nVehSeen="46" meanSpeed="0.00" meanTimeLoss="100.00" meanOccupancy="66.10" maxOccupancy="66.10" meanMaxJamLengthInVehicles="46.00" meanMaxJamLengthInMeters="315.04" maxJamLengthInVehicles="46" maxJamLengthInMeters="315.04" jamLengthInVehiclesSum="4600" jamLengthInMetersSum="31504.47" meanHaltingDuration="1188.85" maxHaltingDuration="1314.00" haltingDurationSum="54687.00" meanIntervalHaltingDuration="100.00" maxIntervalHaltingDuration="100.00" intervalHaltingDurationSum="4600.00" startedHalts="0.00" meanVehicleNumber="46.00" maxVehicleNumber="46" />
   <interval begin="24100.00" end="24200.00" id="e2_L40_2_2" sampledSeconds="4600.00" nVehEntered="0" nVehLeft="0" nVehSeen="46" meanSpeed="0.00" meanTimeLoss="100.00" meanOccupancy="66.10" maxOccupancy="66.10" meanMaxJamLengthInVehicles="46.00" meanMaxJamLengthInMeters="315.04" maxJamLengthInVehicles="46" maxJamLengthInMeters="315.04" jamLengthInVehiclesSum="4600" jamLengthInMetersSum="31504.47" meanHaltingDuration="1288.85" maxHaltingDuration="1414.00" haltingDurationSum="59287.00" meanIntervalHaltingDuration="100.00" maxIntervalHaltingDuration="100.00" intervalHaltingDurationSum="4600.00" startedHalts="0.00" meanVehicleNumber="46.00" maxVehicleNumber="46" />
   <interval begin="24200.00" end="24300.00" id="e2_L40_2_2" sampledSeconds="4600.00" nVehEntered="0" nVehLeft="0" nVehSeen="46" meanSpeed="0.00" meanTimeLoss="100.00" meanOccupancy="66.10" maxOccupancy="66.10" meanMaxJamLengthInVehicles="46.00" meanMaxJamLengthInMeters="315.04" maxJamLengthInVehicles="46" maxJamLengthInMeters="315.04" jamLengthInVehiclesSum="4600" jamLengthInMetersSum="31504.47" meanHaltingDuration="1388.85" maxHaltingDuration="1514.00" haltingDurationSum="63887.00" meanIntervalHaltingDuration="100.00" maxIntervalHaltingDuration="100.00" intervalHaltingDurationSum="4600.00" startedHalts="0.00" meanVehicleNumber="46.00" maxVehicleNumber="46" />
   <interval begin="24300.00" end="24400.00" id="e2_L40_2_2" sampledSeconds="4600.00" nVehEntered="0" nVehLeft="0" nVehSeen="46" meanSpeed="0.00" meanTimeLoss="99.98" meanOccupancy="66.06" maxOccupancy="66.10" meanMaxJamLengthInVehicles="46.00" meanMaxJamLengthInMeters="315.21" maxJamLengthInVehicles="46" maxJamLengthInMeters="316.95" jamLengthInVehiclesSum="4600" jamLengthInMetersSum="31520.87" meanHaltingDuration="1488.85" maxHaltingDuration="1614.00" haltingDurationSum="68487.00" meanIntervalHaltingDuration="100.00" maxIntervalHaltingDuration="100.00" intervalHaltingDurationSum="4600.00" startedHalts="0.00" meanVehicleNumber="46.00" maxVehicleNumber="46" />
   <interval begin="24400.00" end="24500.00" id="e2_L40_2_2" sampledSeconds="4578.00" nVehEntered="0" nVehLeft="1" nVehSeen="46" meanSpeed="0.02" meanTimeLoss="99.39" meanOccupancy="65.49" maxOccupancy="66.13" meanMaxJamLengthInVehicles="45.78" meanMaxJamLengthInMeters="316.99" maxJamLengthInVehicles="46" maxJamLengthInMeters="317.01" jamLengthInVehiclesSum="4578" jamLengthInMetersSum="31698.77" meanHaltingDuration="1589.78" maxHaltingDuration="1714.00" haltingDurationSum="71540.00" meanIntervalHaltingDuration="100.00" maxIntervalHaltingDuration="100.00" intervalHaltingDurationSum="4500.00" startedHalts="0.00" meanVehicleNumber="45.78" maxVehicleNumber="46" />
   <interval begin="24500.00" end="24600.00" id="e2_L40_2_2" sampledSeconds="4492.83" nVehEntered="1" nVehLeft="1" nVehSeen="46" meanSpeed="0.00" meanTimeLoss="97.65" meanOccupancy="64.60" maxOccupancy="64.66" meanMaxJamLengthInVehicles="44.87" meanMaxJamLengthInMeters="316.35" maxJamLengthInVehicles="45" maxJamLengthInMeters="317.01" jamLengthInVehiclesSum="4487" jamLengthInMetersSum="31634.88" meanHaltingDuration="1619.80" maxHaltingDuration="1814.00" haltingDurationSum="74511.00" meanIntervalHaltingDuration="97.24" maxIntervalHaltingDuration="100.00" intervalHaltingDurationSum="4473.00" startedHalts="2.00" meanVehicleNumber="44.93" maxVehicleNumber="45" />
   <interval begin="24600.00" end="24700.00" id="e2_L40_2_2" sampledSeconds="4500.00" nVehEntered="0" nVehLeft="0" nVehSeen="45" meanSpeed="0.00" meanTimeLoss="100.00" meanOccupancy="64.66" maxOccupancy="64.66" meanMaxJamLengthInVehicles="45.00" meanMaxJamLengthInMeters="317.01" maxJamLengthInVehicles="45" maxJamLengthInMeters="317.01" jamLengthInVehiclesSum="4500" jamLengthInMetersSum="31700.56" meanHaltingDuration="1733.15" maxHaltingDuration="1914.00" haltingDurationSum="77992.00" meanIntervalHaltingDuration="100.00" maxIntervalHaltingDuration="100.00" intervalHaltingDurationSum="4500.00" startedHalts="0.00" meanVehicleNumber="45.00" maxVehicleNumber="45" />
   <interval begin="24700.00" end="24800.00" id="e2_L40_2_2" sampledSeconds="4500.00" nVehEntered="0" nVehLeft="0" nVehSeen="45" meanSpeed="0.00" meanTimeLoss="100.00" meanOccupancy="64.66" maxOccupancy="64.66" meanMaxJamLengthInVehicles="45.00" meanMaxJamLengthInMeters="317.01" maxJamLengthInVehicles="45" maxJamLengthInMeters="317.01" jamLengthInVehiclesSum="4500" jamLengthInMetersSum="31700.56" meanHaltingDuration="1833.15" maxHaltingDuration="2014.00" haltingDurationSum="82492.00" meanIntervalHaltingDuration="100.00" maxIntervalHaltingDuration="100.00" intervalHaltingDurationSum="4500.00" startedHalts="0.00" meanVehicleNumber="45.00" maxVehicleNumber="45" />
   <interval begin="24800.00" end="24900.00" id="e2_L40_2_2" sampledSeconds="4500.00" nVehEntered="0" nVehLeft="0" nVehSeen="45" meanSpeed="0.00" meanTimeLoss="100.00" meanOccupancy="64.66" maxOccupancy="64.66" meanMaxJamLengthInVehicles="45.00" meanMaxJamLengthInMeters="317.01" maxJamLengthInVehicles="45" maxJamLengthInMeters="317.01" jamLengthInVehiclesSum="4500" jamLengthInMetersSum="31700.56" meanHaltingDuration="1933.15" maxHaltingDuration="2114.00" haltingDurationSum="86992.00" meanIntervalHaltingDuration="100.00" maxIntervalHaltingDuration="100.00" intervalHaltingDurationSum="4500.00" startedHalts="0.00" meanVehicleNumber="45.00" maxVehicleNumber="45" />
   <interval begin="24900.00" end="25000.00" id="e2_L40_2_2" sampledSeconds="4500.00" nVehEntered="0" nVehLeft="0" nVehSeen="45" meanSpeed="0.00" meanTimeLoss="100.00" meanOccupancy="64.66" maxOccupancy="64.66" meanMaxJamLengthInVehicles="45.00" meanMaxJamLengthInMeters="317.01" maxJamLengthInVehicles="45" maxJamLengthInMeters="317.01" jamLengthInVehiclesSum="4500" jamLengthInMetersSum="31700.56" meanHaltingDuration="2033.15" maxHaltingDuration="2214.00" haltingDurationSum="91492.00" meanIntervalHaltingDuration="100.00" maxIntervalHaltingDuration="100.00" intervalHaltingDurationSum="4500.00" startedHalts="0.00" meanVehicleNumber="45.00" maxVehicleNumber="45" />
   <interval begin="25000.00" end="25100.00" id="e2_L40_2_2" sampledSeconds="4500.00" nVehEntered="0" nVehLeft="0" nVehSeen="45" meanSpeed="0.00" meanTimeLoss="100.00" meanOccupancy="64.66" maxOccupancy="64.66" meanMaxJamLengthInVehicles="45.00" meanMaxJamLengthInMeters="317.01" maxJamLengthInVehicles="45" maxJamLengthInMeters="317.01" jamLengthInVehiclesSum="4500" jamLengthInMetersSum="31700.56" meanHaltingDuration="2133.16" maxHaltingDuration="2314.00" haltingDurationSum="95992.00" meanIntervalHaltingDuration="100.00" maxIntervalHaltingDuration="100.00" intervalHaltingDurationSum="4500.00" startedHalts="0.00" meanVehicleNumber="45.00" maxVehicleNumber="45" />
   <interval begin="25100.00" end="25200.00" id="e2_L40_2_2" sampledSeconds="4500.00" nVehEntered="0" nVehLeft="0" nVehSeen="45" meanSpeed="0.00" meanTimeLoss="100.00" meanOccupancy="64.66" maxOccupancy="64.66" meanMaxJamLengthInVehicles="45.00" meanMaxJamLengthInMeters="317.01" maxJamLengthInVehicles="45" maxJamLengthInMeters="317.03" jamLengthInVehiclesSum="4500" jamLengthInMetersSum="31700.66" meanHaltingDuration="2233.16" maxHaltingDuration="2414.00" haltingDurationSum="100492.00" meanIntervalHaltingDuration="100.00" maxIntervalHaltingDuration="100.00" intervalHaltingDurationSum="4500.00" startedHalts="0.00" meanVehicleNumber="45.00" maxVehicleNumber="45" />
   <interval begin="25200.00" end="25300.00" id="e2_L40_2_2" sampledSeconds="4500.00" nVehEntered="0" nVehLeft="0" nVehSeen="45" meanSpeed="0.00" meanTimeLoss="100.00" meanOccupancy="64.65" maxOccupancy="64.65" meanMaxJamLengthInVehicles="45.00" meanMaxJamLengthInMeters="317.04" maxJamLengthInVehicles="45" maxJamLengthInMeters="317.04" jamLengthInVehiclesSum="4500" jamLengthInMetersSum="31703.83" meanHaltingDuration="2333.16" maxHaltingDuration="2514.00" haltingDurationSum="104992.00" meanIntervalHaltingDuration="100.00" maxIntervalHaltingDuration="100.00" intervalHaltingDurationSum="4500.00" startedHalts="0.00" meanVehicleNumber="45.00" maxVehicleNumber="45" />
   <interval begin="25300.00" end="25400.00" id="e2_L40_2_2" sampledSeconds="4500.00" nVehEntered="0" nVehLeft="0" nVehSeen="45" meanSpeed="0.00" meanTimeLoss="100.00" meanOccupancy="64.65" maxOccupancy="64.65" meanMaxJamLengthInVehicles="45.00" meanMaxJamLengthInMeters="317.04" maxJamLengthInVehicles="45" maxJamLengthInMeters="317.04" jamLengthInVehiclesSum="4500" jamLengthInMetersSum="31703.83" meanHaltingDuration="2433.16" maxHaltingDuration="2614.00" haltingDurationSum="109492.00" meanIntervalHaltingDuration="100.00" maxIntervalHaltingDuration="100.00" intervalHaltingDurationSum="4500.00" startedHalts="0.00" meanVehicleNumber="45.00" maxVehicleNumber="45" />
   <interval begin="25400.00" end="25500.00" id="e2_L40_2_2" sampledSeconds="4500.00" nVehEntered="0" nVehLeft="0" nVehSeen="45" meanSpeed="0.00" meanTimeLoss="100.00" meanOccupancy="64.65" maxOccupancy="64.65" meanMaxJamLengthInVehicles="45.00" meanMaxJamLengthInMeters="317.04" maxJamLengthInVehicles="45" maxJamLengthInMeters="317.04" jamLengthInVehiclesSum="4500" jamLengthInMetersSum="31703.83" meanHaltingDuration="2533.16" maxHaltingDuration="2714.00" haltingDurationSum="113992.00" meanIntervalHaltingDuration="100.00" maxIntervalHaltingDuration="100.00" intervalHaltingDurationSum="4500.00" startedHalts="0.00" meanVehicleNumber="45.00" maxVehicleNumber="45" />
   <interval begin="25500.00" end="25600.00" id="e2_L40_2_2" sampledSeconds="4500.00" nVehEntered="0" nVehLeft="0" nVehSeen="45" meanSpeed="0.00" meanTimeLoss="100.00" meanOccupancy="64.65" maxOccupancy="64.65" meanMaxJamLengthInVehicles="45.00" meanMaxJamLengthInMeters="317.04" maxJamLengthInVehicles="45" maxJamLengthInMeters="317.04" jamLengthInVehiclesSum="4500" jamLengthInMetersSum="31703.83" meanHaltingDuration="2633.16" maxHaltingDuration="2814.00" haltingDurationSum="118492.00" meanIntervalHaltingDuration="100.00" maxIntervalHaltingDuration="100.00" intervalHaltingDurationSum="4500.00" startedHalts="0.00" meanVehicleNumber="45.00" maxVehicleNumber="45" />
   <interval begin="25600.00" end="25700.00" id="e2_L40_2_2" sampledSeconds="4500.00" nVehEntered="0" nVehLeft="0" nVehSeen="45" meanSpeed="0.00" meanTimeLoss="100.00" meanOccupancy="64.65" maxOccupancy="64.65" meanMaxJamLengthInVehicles="45.00" meanMaxJamLengthInMeters="317.04" maxJamLengthInVehicles="45" maxJamLengthInMeters="317.04" jamLengthInVehiclesSum="4500" jamLengthInMetersSum="31703.83" meanHaltingDuration="2733.16" maxHaltingDuration="2914.00" haltingDurationSum="122992.00" meanIntervalHaltingDuration="100.00" maxIntervalHaltingDuration="100.00" intervalHaltingDurationSum="4500.00" startedHalts="0.00" meanVehicleNumber="45.00" maxVehicleNumber="45" />
   <interval begin="25700.00" end="25800.00" id="e2_L40_2_2" sampledSeconds="4500.00" nVehEntered="0" nVehLeft="0" nVehSeen="45" meanSpeed="0.00" meanTimeLoss="100.00" meanOccupancy="64.65" maxOccupancy="64.65" meanMaxJamLengthInVehicles="45.00" meanMaxJamLengthInMeters="317.04" maxJamLengthInVehicles="45" maxJamLengthInMeters="317.04" jamLengthInVehiclesSum="4500" jamLengthInMetersSum="31703.83" meanHaltingDuration="2833.16" maxHaltingDuration="3014.00" haltingDurationSum="127492.00" meanIntervalHaltingDuration="100.00" maxIntervalHaltingDuration="100.00" intervalHaltingDurationSum="4500.00" startedHalts="0.00" meanVehicleNumber="45.00" maxVehicleNumber="45" />