<?xml version="1.0" encoding="UTF-8"?>

<!-- generated on Sun Feb 17 15:57:00 2019 by 
<configuration xmlns:xsi="http://www.w3.org/2001/XMLSchema-instance" xsi:noNamespaceSchemaLocation="http://sumo.dlr.de/xsd/Configuration.xsd">

    <input>
        <net-file value="/home/sda/Documents/sumo-sathorn-ray/models/sathorn-morning/sathorn_w_fixed_20160404.net.xml"/>
        <route-files value="/home/sda/Documents/sumo-sathorn-ray/models/sathorn-morning/Great-route/sathorn_w_20160422edit2.rou.xml"/>
        <additional-files value="/home/sda/Documents/sumo-sathorn-ray/models/sathorn-morning/sathon_wide_tls_20160418_edited.add.xml,/home/sda/Documents/sumo-sathorn-ray/detectors/sathorn_w_detectors.add.xml"/>
    </input>

    <time>
        <begin value="21600"/>
        <end value="32400"/>
        <step-length value="1"/>
    </time>

    <processing>
        <no-internal-links value="true"/>
        <ignore-junction-blocker value="-1"/>
        <time-to-teleport value="-1"/>
        <eager-insert value="true"/>
        <time-to-impatience value="300"/>
    </processing>

    <report>
        <no-warnings value="true"/>
    </report>

    <random_number>
        <random value="false"/>
        <seed value="20"/>
    </random_number>

    <gui_only>
        <gui-settings-file value="/home/sda/Documents/sumo-sathorn-ray/gui-settings/gui-settings-file-surasak.xml"/>
        <quit-on-end value="true"/>
        <start value="true"/>
        <tracker-interval value="1"/>
    </gui_only>

</configuration>
-->

<detector xmlns:xsi="http://www.w3.org/2001/XMLSchema-instance" xsi:noNamespaceSchemaLocation="http://sumo.dlr.de/xsd/det_e2_file.xsd">
   <interval begin="21600.00" end="21700.00" id="e2_L197#2_1_0" sampledSeconds="0.00" nVehEntered="0" nVehLeft="0" nVehSeen="0" meanSpeed="-1.00" meanTimeLoss="-1.00" meanOccupancy="0.00" maxOccupancy="0.00" meanMaxJamLengthInVehicles="0.00" meanMaxJamLengthInMeters="0.00" maxJamLengthInVehicles="0" maxJamLengthInMeters="0.00" jamLengthInVehiclesSum="0" jamLengthInMetersSum="0.00" meanHaltingDuration="0.00" maxHaltingDuration="0.00" haltingDurationSum="0.00" meanIntervalHaltingDuration="0.00" maxIntervalHaltingDuration="0.00" intervalHaltingDurationSum="0.00" startedHalts="0.00" meanVehicleNumber="0.00" maxVehicleNumber="0" />
   <interval begin="21700.00" end="21800.00" id="e2_L197#2_1_0" sampledSeconds="0.00" nVehEntered="0" nVehLeft="0" nVehSeen="0" meanSpeed="-1.00" meanTimeLoss="-1.00" meanOccupancy="0.00" maxOccupancy="0.00" meanMaxJamLengthInVehicles="0.00" meanMaxJamLengthInMeters="0.00" maxJamLengthInVehicles="0" maxJamLengthInMeters="0.00" jamLengthInVehiclesSum="0" jamLengthInMetersSum="0.00" meanHaltingDuration="0.00" maxHaltingDuration="0.00" haltingDurationSum="0.00" meanIntervalHaltingDuration="0.00" maxIntervalHaltingDuration="0.00" intervalHaltingDurationSum="0.00" startedHalts="0.00" meanVehicleNumber="0.00" maxVehicleNumber="0" />
   <interval begin="21800.00" end="21900.00" id="e2_L197#2_1_0" sampledSeconds="10.16" nVehEntered="3" nVehLeft="1" nVehSeen="3" meanSpeed="7.52" meanTimeLoss="1.35" meanOccupancy="1.65" maxOccupancy="30.80" meanMaxJamLengthInVehicles="0.00" meanMaxJamLengthInMeters="0.00" maxJamLengthInVehicles="0" maxJamLengthInMeters="0.00" jamLengthInVehiclesSum="0" jamLengthInMetersSum="0.00" meanHaltingDuration="1.00" maxHaltingDuration="1.00" haltingDurationSum="1.00" meanIntervalHaltingDuration="1.00" maxIntervalHaltingDuration="1.00" intervalHaltingDurationSum="1.00" startedHalts="1.00" meanVehicleNumber="0.12" maxVehicleNumber="2" />
   <interval begin="21900.00" end="22000.00" id="e2_L197#2_1_0" sampledSeconds="459.99" nVehEntered="5" nVehLeft="2" nVehSeen="7" meanSpeed="0.21" meanTimeLoss="64.61" meanOccupancy="61.42" maxOccupancy="65.05" meanMaxJamLengthInVehicles="4.19" meanMaxJamLengthInMeters="24.31" maxJamLengthInVehicles="5" maxJamLengthInMeters="29.00" jamLengthInVehiclesSum="419" jamLengthInMetersSum="2431.49" meanHaltingDuration="39.09" maxHaltingDuration="47.00" haltingDurationSum="430.00" meanIntervalHaltingDuration="39.00" maxIntervalHaltingDuration="47.00" intervalHaltingDurationSum="429.00" startedHalts="10.00" meanVehicleNumber="4.63" maxVehicleNumber="5" />
   <interval begin="22000.00" end="22100.00" id="e2_L197#2_1_0" sampledSeconds="500.00" nVehEntered="0" nVehLeft="0" nVehSeen="5" meanSpeed="0.00" meanTimeLoss="100.00" meanOccupancy="65.05" maxOccupancy="65.05" meanMaxJamLengthInVehicles="5.00" meanMaxJamLengthInMeters="29.00" maxJamLengthInVehicles="5" maxJamLengthInMeters="29.00" jamLengthInVehiclesSum="500" jamLengthInMetersSum="2899.90" meanHaltingDuration="143.40" maxHaltingDuration="147.00" haltingDurationSum="717.00" meanIntervalHaltingDuration="100.00" maxIntervalHaltingDuration="100.00" intervalHaltingDurationSum="500.00" startedHalts="0.00" meanVehicleNumber="5.00" maxVehicleNumber="5" />
   <interval begin="22100.00" end="22200.00" id="e2_L197#2_1_0" sampledSeconds="500.00" nVehEntered="0" nVehLeft="0" nVehSeen="5" meanSpeed="0.00" meanTimeLoss="100.00" meanOccupancy="65.05" maxOccupancy="65.05" meanMaxJamLengthInVehicles="5.00" meanMaxJamLengthInMeters="29.00" maxJamLengthInVehicles="5" maxJamLengthInMeters="29.00" jamLengthInVehiclesSum="500" jamLengthInMetersSum="2899.90" meanHaltingDuration="243.40" maxHaltingDuration="247.00" haltingDurationSum="1217.00" meanIntervalHaltingDuration="100.00" maxIntervalHaltingDuration="100.00" intervalHaltingDurationSum="500.00" startedHalts="0.00" meanVehicleNumber="5.00" maxVehicleNumber="5" />
   <interval begin="22200.00" end="22300.00" id="e2_L197#2_1_0" sampledSeconds="491.67" nVehEntered="1" nVehLeft="1" nVehSeen="6" meanSpeed="0.08" meanTimeLoss="81.42" meanOccupancy="65.44" maxOccupancy="68.05" meanMaxJamLengthInVehicles="4.74" meanMaxJamLengthInMeters="27.89" maxJamLengthInVehicles="5" maxJamLengthInMeters="29.90" jamLengthInVehiclesSum="475" jamLengthInMetersSum="2791.27" meanHaltingDuration="169.70" maxHaltingDuration="292.00" haltingDurationSum="1697.00" meanIntervalHaltingDuration="48.00" maxIntervalHaltingDuration="51.00" intervalHaltingDurationSum="480.00" startedHalts="5.00" meanVehicleNumber="4.93" maxVehicleNumber="5" />
   <interval begin="22300.00" end="22400.00" id="e2_L197#2_1_0" sampledSeconds="484.23" nVehEntered="2" nVehLeft="2" nVehSeen="7" meanSpeed="0.13" meanTimeLoss="68.44" meanOccupancy="63.86" maxOccupancy="68.05" meanMaxJamLengthInVehicles="4.55" meanMaxJamLengthInMeters="26.51" maxJamLengthInVehicles="5" maxJamLengthInMeters="29.90" jamLengthInVehiclesSum="455" jamLengthInMetersSum="2651.03" meanHaltingDuration="63.82" maxHaltingDuration="77.00" haltingDurationSum="702.00" meanIntervalHaltingDuration="41.91" maxIntervalHaltingDuration="77.00" intervalHaltingDurationSum="461.00" startedHalts="6.00" meanVehicleNumber="4.86" maxVehicleNumber="5" />
   <interval begin="22400.00" end="22500.00" id="e2_L197#2_1_0" sampledSeconds="500.00" nVehEntered="0" nVehLeft="0" nVehSeen="5" meanSpeed="0.00" meanTimeLoss="100.00" meanOccupancy="65.05" maxOccupancy="65.05" meanMaxJamLengthInVehicles="5.00" meanMaxJamLengthInMeters="29.00" maxJamLengthInVehicles="5" maxJamLengthInMeters="29.00" jamLengthInVehiclesSum="500" jamLengthInMetersSum="2899.90" meanHaltingDuration="174.20" maxHaltingDuration="177.00" haltingDurationSum="871.00" meanIntervalHaltingDuration="100.00" maxIntervalHaltingDuration="100.00" intervalHaltingDurationSum="500.00" startedHalts="0.00" meanVehicleNumber="5.00" maxVehicleNumber="5" />
   <interval begin="22500.00" end="22600.00" id="e2_L197#2_1_0" sampledSeconds="500.00" nVehEntered="0" nVehLeft="0" nVehSeen="5" meanSpeed="0.00" meanTimeLoss="100.00" meanOccupancy="65.05" maxOccupancy="65.05" meanMaxJamLengthInVehicles="5.00" meanMaxJamLengthInMeters="29.00" maxJamLengthInVehicles="5" maxJamLengthInMeters="29.00" jamLengthInVehiclesSum="500" jamLengthInMetersSum="2899.90" meanHaltingDuration="274.20" maxHaltingDuration="277.00" haltingDurationSum="1371.00" meanIntervalHaltingDuration="100.00" maxIntervalHaltingDuration="100.00" intervalHaltingDurationSum="500.00" startedHalts="0.00" meanVehicleNumber="5.00" maxVehicleNumber="5" />
   <interval begin="22600.00" end="22700.00" id="e2_L197#2_1_0" sampledSeconds="500.00" nVehEntered="0" nVehLeft="0" nVehSeen="5" meanSpeed="0.00" meanTimeLoss="100.00" meanOccupancy="65.05" maxOccupancy="65.05" meanMaxJamLengthInVehicles="5.00" meanMaxJamLengthInMeters="29.00" maxJamLengthInVehicles="5" maxJamLengthInMeters="29.00" jamLengthInVehiclesSum="500" jamLengthInMetersSum="2899.90" meanHaltingDuration="374.20" maxHaltingDuration="377.00" haltingDurationSum="1871.00" meanIntervalHaltingDuration="100.00" maxIntervalHaltingDuration="100.00" intervalHaltingDurationSum="500.00" startedHalts="0.00" meanVehicleNumber="5.00" maxVehicleNumber="5" />
   <interval begin="22700.00" end="22800.00" id="e2_L197#2_1_0" sampledSeconds="500.00" nVehEntered="0" nVehLeft="0" nVehSeen="5" meanSpeed="0.00" meanTimeLoss="100.00" meanOccupancy="65.05" maxOccupancy="65.05" meanMaxJamLengthInVehicles="5.00" meanMaxJamLengthInMeters="29.00" maxJamLengthInVehicles="5" maxJamLengthInMeters="29.00" jamLengthInVehiclesSum="500" jamLengthInMetersSum="2899.90" meanHaltingDuration="474.20" maxHaltingDuration="477.00" haltingDurationSum="2371.00" meanIntervalHaltingDuration="100.00" maxIntervalHaltingDuration="100.00" intervalHaltingDurationSum="500.00" startedHalts="0.00" meanVehicleNumber="5.00" maxVehicleNumber="5" />
   <interval begin="22800.00" end="22900.00" id="e2_L197#2_1_0" sampledSeconds="500.00" nVehEntered="0" nVehLeft="0" nVehSeen="5" meanSpeed="0.00" meanTimeLoss="100.00" meanOccupancy="65.05" maxOccupancy="65.05" meanMaxJamLengthInVehicles="5.00" meanMaxJamLengthInMeters="29.00" maxJamLengthInVehicles="5" maxJamLengthInMeters="29.00" jamLengthInVehiclesSum="500" jamLengthInMetersSum="2899.90" meanHaltingDuration="574.20" maxHaltingDuration="577.00" haltingDurationSum="2871.00" meanIntervalHaltingDuration="100.00" maxIntervalHaltingDuration="100.00" intervalHaltingDurationSum="500.00" startedHalts="0.00" meanVehicleNumber="5.00" maxVehicleNumber="5" />
   <interval begin="22900.00" end="23000.00" id="e2_L197#2_1_0" sampledSeconds="500.00" nVehEntered="0" nVehLeft="0" nVehSeen="5" meanSpeed="0.00" meanTimeLoss="100.00" meanOccupancy="65.05" maxOccupancy="65.05" meanMaxJamLengthInVehicles="5.00" meanMaxJamLengthInMeters="29.00" maxJamLengthInVehicles="5" maxJamLengthInMeters="29.00" jamLengthInVehiclesSum="500" jamLengthInMetersSum="2899.90" meanHaltingDuration="674.20" maxHaltingDuration="677.00" haltingDurationSum="3371.00" meanIntervalHaltingDuration="100.00" maxIntervalHaltingDuration="100.00" intervalHaltingDurationSum="500.00" startedHalts="0.00" meanVehicleNumber="5.00" maxVehicleNumber="5" />
   <interval begin="23000.00" end="23100.00" id="e2_L197#2_1_0" sampledSeconds="500.00" nVehEntered="0" nVehLeft="0" nVehSeen="5" meanSpeed="0.00" meanTimeLoss="100.00" meanOccupancy="65.05" maxOccupancy="65.05" meanMaxJamLengthInVehicles="5.00" meanMaxJamLengthInMeters="29.00" maxJamLengthInVehicles="5" maxJamLengthInMeters="29.00" jamLengthInVehiclesSum="500" jamLengthInMetersSum="2899.90" meanHaltingDuration="774.20" maxHaltingDuration="777.00" haltingDurationSum="3871.00" meanIntervalHaltingDuration="100.00" maxIntervalHaltingDuration="100.00" intervalHaltingDurationSum="500.00" startedHalts="0.00" meanVehicleNumber="5.00" maxVehicleNumber="5" />
   <interval begin="23100.00" end="23200.00" id="e2_L197#2_1_0" sampledSeconds="500.00" nVehEntered="0" nVehLeft="0" nVehSeen="5" meanSpeed="0.00" meanTimeLoss="100.00" meanOccupancy="65.05" maxOccupancy="65.05" meanMaxJamLengthInVehicles="5.00" meanMaxJamLengthInMeters="29.00" maxJamLengthInVehicles="5" maxJamLengthInMeters="29.00" jamLengthInVehiclesSum="500" jamLengthInMetersSum="2899.90" meanHaltingDuration="874.20" maxHaltingDuration="877.00" haltingDurationSum="4371.00" meanIntervalHaltingDuration="100.00" maxIntervalHaltingDuration="100.00" intervalHaltingDurationSum="500.00" startedHalts="0.00" meanVehicleNumber="5.00" maxVehicleNumber="5" />
   <interval begin="23200.00" end="23300.00" id="e2_L197#2_1_0" sampledSeconds="500.00" nVehEntered="0" nVehLeft="0" nVehSeen="5" meanSpeed="0.00" meanTimeLoss="100.00" meanOccupancy="65.05" maxOccupancy="65.05" meanMaxJamLengthInVehicles="5.00" meanMaxJamLengthInMeters="29.00" maxJamLengthInVehicles="5" maxJamLengthInMeters="29.00" jamLengthInVehiclesSum="500" jamLengthInMetersSum="2899.90" meanHaltingDuration="974.20" maxHaltingDuration="977.00" haltingDurationSum="4871.00" meanIntervalHaltingDuration="100.00" maxIntervalHaltingDuration="100.00" intervalHaltingDurationSum="500.00" startedHalts="0.00" meanVehicleNumber="5.00" maxVehicleNumber="5" />
   <interval begin="23300.00" end="23400.00" id="e2_L197#2_1_0" sampledSeconds="500.00" nVehEntered="0" nVehLeft="0" nVehSeen="5" meanSpeed="0.00" meanTimeLoss="100.00" meanOccupancy="65.05" maxOccupancy="65.05" meanMaxJamLengthInVehicles="5.00" meanMaxJamLengthInMeters="29.00" maxJamLengthInVehicles="5" maxJamLengthInMeters="29.00" jamLengthInVehiclesSum="500" jamLengthInMetersSum="2899.90" meanHaltingDuration="1074.20" maxHaltingDuration="1077.00" haltingDurationSum="5371.00" meanIntervalHaltingDuration="100.00" maxIntervalHaltingDuration="100.00" intervalHaltingDurationSum="500.00" startedHalts="0.00" meanVehicleNumber="5.00" maxVehicleNumber="5" />
   <interval begin="23400.00" end="23500.00" id="e2_L197#2_1_0" sampledSeconds="479.41" nVehEntered="2" nVehLeft="2" nVehSeen="7" meanSpeed="0.13" meanTimeLoss="67.79" meanOccupancy="62.98" maxOccupancy="65.05" meanMaxJamLengthInVehicles="4.58" meanMaxJamLengthInMeters="26.56" maxJamLengthInVehicles="5" maxJamLengthInMeters="29.00" jamLengthInVehiclesSum="458" jamLengthInMetersSum="2655.80" meanHaltingDuration="583.40" maxHaltingDuration="1113.00" haltingDurationSum="5834.00" meanIntervalHaltingDuration="46.30" maxIntervalHaltingDuration="58.00" intervalHaltingDurationSum="463.00" startedHalts="5.00" meanVehicleNumber="4.81" maxVehicleNumber="5" />
   <interval begin="23500.00" end="23600.00" id="e2_L197#2_1_0" sampledSeconds="500.00" nVehEntered="0" nVehLeft="0" nVehSeen="5" meanSpeed="0.00" meanTimeLoss="100.00" meanOccupancy="65.05" maxOccupancy="65.05" meanMaxJamLengthInVehicles="5.00" meanMaxJamLengthInMeters="29.00" maxJamLengthInVehicles="5" maxJamLengthInMeters="29.00" jamLengthInVehiclesSum="500" jamLengthInMetersSum="2899.89" meanHaltingDuration="154.60" maxHaltingDuration="158.00" haltingDurationSum="773.00" meanIntervalHaltingDuration="100.00" maxIntervalHaltingDuration="100.00" intervalHaltingDurationSum="500.00" startedHalts="0.00" meanVehicleNumber="5.00" maxVehicleNumber="5" />
   <interval begin="23600.00" end="23700.00" id="e2_L197#2_1_0" sampledSeconds="500.00" nVehEntered="0" nVehLeft="0" nVehSeen="5" meanSpeed="0.00" meanTimeLoss="100.00" meanOccupancy="65.05" maxOccupancy="65.05" meanMaxJamLengthInVehicles="5.00" meanMaxJamLengthInMeters="29.00" maxJamLengthInVehicles="5" maxJamLengthInMeters="29.00" jamLengthInVehiclesSum="500" jamLengthInMetersSum="2899.89" meanHaltingDuration="254.60" maxHaltingDuration="258.00" haltingDurationSum="1273.00" meanIntervalHaltingDuration="100.00" maxIntervalHaltingDuration="100.00" intervalHaltingDurationSum="500.00" startedHalts="0.00" meanVehicleNumber="5.00" maxVehicleNumber="5" />
   <interval begin="23700.00" end="23800.00" id="e2_L197#2_1_0" sampledSeconds="500.00" nVehEntered="0" nVehLeft="0" nVehSeen="5" meanSpeed="0.00" meanTimeLoss="100.00" meanOccupancy="65.05" maxOccupancy="65.05" meanMaxJamLengthInVehicles="5.00" meanMaxJamLengthInMeters="29.00" maxJamLengthInVehicles="5" maxJamLengthInMeters="29.00" jamLengthInVehiclesSum="500" jamLengthInMetersSum="2899.89" meanHaltingDuration="354.60" maxHaltingDuration="358.00" haltingDurationSum="1773.00" meanIntervalHaltingDuration="100.00" maxIntervalHaltingDuration="100.00" intervalHaltingDurationSum="500.00" startedHalts="0.00" meanVehicleNumber="5.00" maxVehicleNumber="5" />
   <interval begin="23800.00" end="23900.00" id="e2_L197#2_1_0" sampledSeconds="483.41" nVehEntered="2" nVehLeft="2" nVehSeen="7" meanSpeed="0.13" meanTimeLoss="68.31" meanOccupancy="63.29" maxOccupancy="65.05" meanMaxJamLengthInVehicles="4.59" meanMaxJamLengthInMeters="26.57" maxJamLengthInVehicles="5" maxJamLengthInMeters="29.00" jamLengthInVehiclesSum="459" jamLengthInMetersSum="2656.50" meanHaltingDuration="223.70" maxHaltingDuration="383.00" haltingDurationSum="2237.00" meanIntervalHaltingDuration="46.40" maxIntervalHaltingDuration="68.00" intervalHaltingDurationSum="464.00" startedHalts="5.00" meanVehicleNumber="4.85" maxVehicleNumber="5" />
   <interval begin="23900.00" end="24000.00" id="e2_L197#2_1_0" sampledSeconds="482.01" nVehEntered="2" nVehLeft="2" nVehSeen="7" meanSpeed="0.13" meanTimeLoss="68.13" meanOccupancy="63.19" maxOccupancy="65.05" meanMaxJamLengthInVehicles="4.61" meanMaxJamLengthInMeters="26.77" maxJamLengthInVehicles="5" maxJamLengthInMeters="30.36" jamLengthInVehiclesSum="461" jamLengthInMetersSum="2676.72" meanHaltingDuration="73.22" maxHaltingDuration="134.00" haltingDurationSum="659.00" meanIntervalHaltingDuration="44.44" maxIntervalHaltingDuration="71.00" intervalHaltingDurationSum="400.00" startedHalts="5.00" meanVehicleNumber="4.83" maxVehicleNumber="5" />
   <interval begin="24000.00" end="24100.00" id="e2_L197#2_1_0" sampledSeconds="500.00" nVehEntered="0" nVehLeft="0" nVehSeen="5" meanSpeed="0.00" meanTimeLoss="100.00" meanOccupancy="65.05" maxOccupancy="65.05" meanMaxJamLengthInVehicles="5.00" meanMaxJamLengthInMeters="29.00" maxJamLengthInVehicles="5" maxJamLengthInMeters="29.00" jamLengthInVehiclesSum="500" jamLengthInMetersSum="2899.90" meanHaltingDuration="124.80" maxHaltingDuration="128.00" haltingDurationSum="624.00" meanIntervalHaltingDuration="100.00" maxIntervalHaltingDuration="100.00" intervalHaltingDurationSum="500.00" startedHalts="0.00" meanVehicleNumber="5.00" maxVehicleNumber="5" />
   <interval begin="24100.00" end="24200.00" id="e2_L197#2_1_0" sampledSeconds="492.03" nVehEntered="2" nVehLeft="2" nVehSeen="7" meanSpeed="0.07" meanTimeLoss="69.88" meanOccupancy="64.13" maxOccupancy="65.05" meanMaxJamLengthInVehicles="4.73" meanMaxJamLengthInMeters="27.39" maxJamLengthInVehicles="5" maxJamLengthInMeters="29.00" jamLengthInVehiclesSum="474" jamLengthInMetersSum="2742.56" meanHaltingDuration="100.36" maxHaltingDuration="144.00" haltingDurationSum="1104.00" meanIntervalHaltingDuration="43.64" maxIntervalHaltingDuration="80.00" intervalHaltingDurationSum="480.00" startedHalts="6.00" meanVehicleNumber="4.93" maxVehicleNumber="5" />
   <interval begin="24200.00" end="24300.00" id="e2_L197#2_1_0" sampledSeconds="500.00" nVehEntered="0" nVehLeft="0" nVehSeen="5" meanSpeed="0.00" meanTimeLoss="100.00" meanOccupancy="65.05" maxOccupancy="65.05" meanMaxJamLengthInVehicles="5.00" meanMaxJamLengthInMeters="29.00" maxJamLengthInVehicles="5" maxJamLengthInMeters="29.00" jamLengthInVehiclesSum="500" jamLengthInMetersSum="2899.90" meanHaltingDuration="177.20" maxHaltingDuration="180.00" haltingDurationSum="886.00" meanIntervalHaltingDuration="100.00" maxIntervalHaltingDuration="100.00" intervalHaltingDurationSum="500.00" startedHalts="0.00" meanVehicleNumber="5.00" maxVehicleNumber="5" />
   <interval begin="24300.00" end="24400.00" id="e2_L197#2_1_0" sampledSeconds="500.00" nVehEntered="0" nVehLeft="0" nVehSeen="5" meanSpeed="0.00" meanTimeLoss="100.00" meanOccupancy="65.05" maxOccupancy="65.05" meanMaxJamLengthInVehicles="5.00" meanMaxJamLengthInMeters="29.00" maxJamLengthInVehicles="5" maxJamLengthInMeters="29.00" jamLengthInVehiclesSum="500" jamLengthInMetersSum="2899.90" meanHaltingDuration="277.20" maxHaltingDuration="280.00" haltingDurationSum="1386.00" meanIntervalHaltingDuration="100.00" maxIntervalHaltingDuration="100.00" intervalHaltingDurationSum="500.00" startedHalts="0.00" meanVehicleNumber="5.00" maxVehicleNumber="5" />
   <interval begin="24400.00" end="24500.00" id="e2_L197#2_1_0" sampledSeconds="500.00" nVehEntered="0" nVehLeft="0" nVehSeen="5" meanSpeed="0.00" meanTimeLoss="100.00" meanOccupancy="65.05" maxOccupancy="65.05" meanMaxJamLengthInVehicles="5.00" meanMaxJamLengthInMeters="29.00" maxJamLengthInVehicles="5" maxJamLengthInMeters="29.00" jamLengthInVehiclesSum="500" jamLengthInMetersSum="2899.90" meanHaltingDuration="377.20" maxHaltingDuration="380.00" haltingDurationSum="1886.00" meanIntervalHaltingDuration="100.00" maxIntervalHaltingDuration="100.00" intervalHaltingDurationSum="500.00" startedHalts="0.00" meanVehicleNumber="5.00" maxVehicleNumber="5" />
   <interval begin="24500.00" end="24600.00" id="e2_L197#2_1_0" sampledSeconds="500.00" nVehEntered="0" nVehLeft="0" nVehSeen="5" meanSpeed="0.00" meanTimeLoss="100.00" meanOccupancy="65.05" maxOccupancy="65.05" meanMaxJamLengthInVehicles="5.00" meanMaxJamLengthInMeters="29.00" maxJamLengthInVehicles="5" maxJamLengthInMeters="29.00" jamLengthInVehiclesSum="500" jamLengthInMetersSum="2899.90" meanHaltingDuration="477.20" maxHaltingDuration="480.00" haltingDurationSum="2386.00" meanIntervalHaltingDuration="100.00" maxIntervalHaltingDuration="100.00" intervalHaltingDurationSum="500.00" startedHalts="0.00" meanVehicleNumber="5.00" maxVehicleNumber="5" />
   <interval begin="24600.00" end="24700.00" id="e2_L197#2_1_0" sampledSeconds="500.00" nVehEntered="0" nVehLeft="0" nVehSeen="5" meanSpeed="0.00" meanTimeLoss="100.00" meanOccupancy="65.05" maxOccupancy="65.05" meanMaxJamLengthInVehicles="5.00" meanMaxJamLengthInMeters="29.00" maxJamLengthInVehicles="5" maxJamLengthInMeters="29.00" jamLengthInVehiclesSum="500" jamLengthInMetersSum="2899.90" meanHaltingDuration="577.20" maxHaltingDuration="580.00" haltingDurationSum="2886.00" meanIntervalHaltingDuration="100.00" maxIntervalHaltingDuration="100.00" intervalHaltingDurationSum="500.00" startedHalts="0.00" meanVehicleNumber="5.00" maxVehicleNumber="5" />
   <interval begin="24700.00" end="24800.00" id="e2_L197#2_1_0" sampledSeconds="500.00" nVehEntered="0" nVehLeft="0" nVehSeen="5" meanSpeed="0.01" meanTimeLoss="99.93" meanOccupancy="66.17" maxOccupancy="68.05" meanMaxJamLengthInVehicles="5.00" meanMaxJamLengthInMeters="29.39" maxJamLengthInVehicles="5" maxJamLengthInMeters="29.90" jamLengthInVehiclesSum="500" jamLengthInMetersSum="2939.42" meanHaltingDuration="677.20" maxHaltingDuration="680.00" haltingDurationSum="3386.00" meanIntervalHaltingDuration="100.00" maxIntervalHaltingDuration="100.00" intervalHaltingDurationSum="500.00" startedHalts="0.00" meanVehicleNumber="5.00" maxVehicleNumber="5" />
   <interval begin="24800.00" end="24900.00" id="e2_L197#2_1_0" sampledSeconds="500.00" nVehEntered="0" nVehLeft="0" nVehSeen="5" meanSpeed="0.00" meanTimeLoss="100.00" meanOccupancy="68.05" maxOccupancy="68.05" meanMaxJamLengthInVehicles="5.00" meanMaxJamLengthInMeters="29.90" maxJamLengthInVehicles="5" maxJamLengthInMeters="29.90" jamLengthInVehiclesSum="500" jamLengthInMetersSum="2989.90" meanHaltingDuration="777.20" maxHaltingDuration="780.00" haltingDurationSum="3886.00" meanIntervalHaltingDuration="100.00" maxIntervalHaltingDuration="100.00" intervalHaltingDurationSum="500.00" startedHalts="0.00" meanVehicleNumber="5.00" maxVehicleNumber="5" />
   <interval begin="24900.00" end="25000.00" id="e2_L197#2_1_0" sampledSeconds="500.00" nVehEntered="0" nVehLeft="0" nVehSeen="5" meanSpeed="0.00" meanTimeLoss="100.00" meanOccupancy="68.05" maxOccupancy="68.05" meanMaxJamLengthInVehicles="5.00" meanMaxJamLengthInMeters="29.90" maxJamLengthInVehicles="5" maxJamLengthInMeters="29.90" jamLengthInVehiclesSum="500" jamLengthInMetersSum="2989.90" meanHaltingDuration="877.20" maxHaltingDuration="880.00" haltingDurationSum="4386.00" meanIntervalHaltingDuration="100.00" maxIntervalHaltingDuration="100.00" intervalHaltingDurationSum="500.00" startedHalts="0.00" meanVehicleNumber="5.00" maxVehicleNumber="5" />
   <interval begin="25000.00" end="25100.00" id="e2_L197#2_1_0" sampledSeconds="500.00" nVehEntered="0" nVehLeft="0" nVehSeen="5" meanSpeed="0.00" meanTimeLoss="100.00" meanOccupancy="68.05" maxOccupancy="68.05" meanMaxJamLengthInVehicles="5.00" meanMaxJamLengthInMeters="29.90" maxJamLengthInVehicles="5" maxJamLengthInMeters="29.90" jamLengthInVehiclesSum="500" jamLengthInMetersSum="2989.90" meanHaltingDuration="977.20" maxHaltingDuration="980.00" haltingDurationSum="4886.00" meanIntervalHaltingDuration="100.00" maxIntervalHaltingDuration="100.00" intervalHaltingDurationSum="500.00" startedHalts="0.00" meanVehicleNumber="5.00" maxVehicleNumber="5" />
   <interval begin="25100.00" end="25200.00" id="e2_L197#2_1_0" sampledSeconds="500.00" nVehEntered="0" nVehLeft="0" nVehSeen="5" meanSpeed="0.00" meanTimeLoss="100.00" meanOccupancy="68.05" maxOccupancy="68.05" meanMaxJamLengthInVehicles="5.00" meanMaxJamLengthInMeters="29.90" maxJamLengthInVehicles="5" maxJamLengthInMeters="29.90" jamLengthInVehiclesSum="500" jamLengthInMetersSum="2989.90" meanHaltingDuration="1077.20" maxHaltingDuration="1080.00" haltingDurationSum="5386.00" meanIntervalHaltingDuration="100.00" maxIntervalHaltingDuration="100.00" intervalHaltingDurationSum="500.00" startedHalts="0.00" meanVehicleNumber="5.00" maxVehicleNumber="5" />
   <interval begin="25200.00" end="25300.00" id="e2_L197#2_1_0" sampledSeconds="500.00" nVehEntered="0" nVehLeft="0" nVehSeen="5" meanSpeed="0.00" meanTimeLoss="100.00" meanOccupancy="68.05" maxOccupancy="68.05" meanMaxJamLengthInVehicles="5.00" meanMaxJamLengthInMeters="29.90" maxJamLengthInVehicles="5" maxJamLengthInMeters="29.90" jamLengthInVehiclesSum="500" jamLengthInMetersSum="2989.90" meanHaltingDuration="1177.20" maxHaltingDuration="1180.00" haltingDurationSum="5886.00" meanIntervalHaltingDuration="100.00" maxIntervalHaltingDuration="100.00" intervalHaltingDurationSum="500.00" startedHalts="0.00" meanVehicleNumber="5.00" maxVehicleNumber="5" />
   <interval begin="25300.00" end="25400.00" id="e2_L197#2_1_0" sampledSeconds="500.00" nVehEntered="0" nVehLeft="0" nVehSeen="5" meanSpeed="0.00" meanTimeLoss="100.00" meanOccupancy="68.05" maxOccupancy="68.05" meanMaxJamLengthInVehicles="5.00" meanMaxJamLengthInMeters="29.90" maxJamLengthInVehicles="5" maxJamLengthInMeters="29.90" jamLengthInVehiclesSum="500" jamLengthInMetersSum="2989.90" meanHaltingDuration="1277.20" maxHaltingDuration="1280.00" haltingDurationSum="6386.00" meanIntervalHaltingDuration="100.00" maxIntervalHaltingDuration="100.00" intervalHaltingDurationSum="500.00" startedHalts="0.00" meanVehicleNumber="5.00" maxVehicleNumber="5" />
   <interval begin="25400.00" end="25500.00" id="e2_L197#2_1_0" sampledSeconds="429.82" nVehEntered="8" nVehLeft="9" nVehSeen="13" meanSpeed="0.67" meanTimeLoss="31.29" meanOccupancy="57.56" maxOccupancy="68.05" meanMaxJamLengthInVehicles="3.28" meanMaxJamLengthInMeters="19.11" maxJamLengthInVehicles="5" maxJamLengthInMeters="29.90" jamLengthInVehiclesSum="328" jamLengthInMetersSum="1911.26" meanHaltingDuration="395.65" maxHaltingDuration="1306.00" haltingDurationSum="6726.00" meanIntervalHaltingDuration="20.00" maxIntervalHaltingDuration="32.00" intervalHaltingDurationSum="340.00" startedHalts="13.00" meanVehicleNumber="4.38" maxVehicleNumber="5" />
   <interval begin="25500.00" end="25600.00" id="e2_L197#2_1_0" sampledSeconds="371.51" nVehEntered="3" nVehLeft="5" nVehSeen="7" meanSpeed="0.33" meanTimeLoss="51.65" meanOccupancy="53.79" maxOccupancy="61.60" meanMaxJamLengthInVehicles="3.17" meanMaxJamLengthInMeters="21.04" maxJamLengthInVehicles="4" maxJamLengthInMeters="29.90" jamLengthInVehiclesSum="319" jamLengthInMetersSum="2107.87" meanHaltingDuration="20.00" maxHaltingDuration="53.00" haltingDurationSum="280.00" meanIntervalHaltingDuration="19.93" maxIntervalHaltingDuration="53.00" intervalHaltingDurationSum="279.00" startedHalts="14.00" meanVehicleNumber="3.74" maxVehicleNumber="4" />
   <interval begin="25600.00" end="25700.00" id="e2_L197#2_1_0" sampledSeconds="347.68" nVehEntered="11" nVehLeft="9" nVehSeen="13" meanSpeed="0.97" meanTimeLoss="24.67" meanOccupancy="45.69" maxOccupancy="56.62" meanMaxJamLengthInVehicles="2.30" meanMaxJamLengthInMeters="16.22" maxJamLengthInVehicles="4" maxJamLengthInMeters="29.00" jamLengthInVehiclesSum="230" jamLengthInMetersSum="1622.07" meanHaltingDuration="11.04" maxHaltingDuration="60.00" haltingDurationSum="254.00" meanIntervalHaltingDuration="10.96" maxIntervalHaltingDuration="60.00" intervalHaltingDurationSum="252.00" startedHalts="22.00" meanVehicleNumber="3.54" maxVehicleNumber="4" />
   <interval begin="25700.00" end="25800.00" id="e2_L197#2_1_0" sampledSeconds="400.00" nVehEntered="0" nVehLeft="0" nVehSeen="4" meanSpeed="0.00" meanTimeLoss="100.00" meanOccupancy="49.65" maxOccupancy="49.65" meanMaxJamLengthInVehicles="4.00" meanMaxJamLengthInMeters="29.00" maxJamLengthInVehicles="4" maxJamLengthInMeters="29.00" jamLengthInVehiclesSum="400" jamLengthInMetersSum="2899.90" meanHaltingDuration="156.75" maxHaltingDuration="160.00" haltingDurationSum="627.00" meanIntervalHaltingDuration="100.00" maxIntervalHaltingDuration="100.00" intervalHaltingDurationSum="400.00" startedHalts="0.00" meanVehicleNumber="4.00" maxVehicleNumber="4" />
   <interval begin="25800.00" end="25900.00" id="e2_L197#2_1_0" sampledSeconds="391.41" nVehEntered="1" nVehLeft="1" nVehSeen="5" meanSpeed="0.08" meanTimeLoss="77.78" meanOccupancy="49.97" maxOccupancy="52.65" meanMaxJamLengthInVehicles="3.79" meanMaxJamLengthInMeters="27.84" maxJamLengthInVehicles="4" maxJamLengthInMeters="29.90" jamLengthInVehiclesSum="380" jamLengthInMetersSum="2786.19" meanHaltingDuration="126.38" maxHaltingDuration="206.00" haltingDurationSum="1011.00" meanIntervalHaltingDuration="48.00" maxIntervalHaltingDuration="51.00" intervalHaltingDurationSum="384.00" startedHalts="4.00" meanVehicleNumber="3.93" maxVehicleNumber="4" />