<?xml version="1.0" encoding="UTF-8"?>

<!-- generated on Sun Feb 17 15:57:00 2019 by 
<configuration xmlns:xsi="http://www.w3.org/2001/XMLSchema-instance" xsi:noNamespaceSchemaLocation="http://sumo.dlr.de/xsd/Configuration.xsd">

    <input>
        <net-file value="/home/sda/Documents/sumo-sathorn-ray/models/sathorn-morning/sathorn_w_fixed_20160404.net.xml"/>
        <route-files value="/home/sda/Documents/sumo-sathorn-ray/models/sathorn-morning/Great-route/sathorn_w_20160422edit2.rou.xml"/>
        <additional-files value="/home/sda/Documents/sumo-sathorn-ray/models/sathorn-morning/sathon_wide_tls_20160418_edited.add.xml,/home/sda/Documents/sumo-sathorn-ray/detectors/sathorn_w_detectors.add.xml"/>
    </input>

    <time>
        <begin value="21600"/>
        <end value="32400"/>
        <step-length value="1"/>
    </time>

    <processing>
        <no-internal-links value="true"/>
        <ignore-junction-blocker value="-1"/>
        <time-to-teleport value="-1"/>
        <eager-insert value="true"/>
        <time-to-impatience value="300"/>
    </processing>

    <report>
        <no-warnings value="true"/>
    </report>

    <random_number>
        <random value="false"/>
        <seed value="20"/>
    </random_number>

    <gui_only>
        <gui-settings-file value="/home/sda/Documents/sumo-sathorn-ray/gui-settings/gui-settings-file-surasak.xml"/>
        <quit-on-end value="true"/>
        <start value="true"/>
        <tracker-interval value="1"/>
    </gui_only>

</configuration>
-->

<detector xmlns:xsi="http://www.w3.org/2001/XMLSchema-instance" xsi:noNamespaceSchemaLocation="http://sumo.dlr.de/xsd/det_e2_file.xsd">
   <interval begin="21600.00" end="21700.00" id="e2_L64_1_3" sampledSeconds="96.73" nVehEntered="7" nVehLeft="0" nVehSeen="7" meanSpeed="10.23" meanTimeLoss="2.51" meanOccupancy="1.66" maxOccupancy="11.36" meanMaxJamLengthInVehicles="0.10" meanMaxJamLengthInMeters="0.46" maxJamLengthInVehicles="1" maxJamLengthInMeters="4.62" jamLengthInVehiclesSum="10" jamLengthInMetersSum="46.20" meanHaltingDuration="11.00" maxHaltingDuration="11.00" haltingDurationSum="11.00" meanIntervalHaltingDuration="11.00" maxIntervalHaltingDuration="11.00" intervalHaltingDurationSum="11.00" startedHalts="1.00" meanVehicleNumber="1.00" maxVehicleNumber="7" />
   <interval begin="21700.00" end="21800.00" id="e2_L64_1_3" sampledSeconds="981.06" nVehEntered="27" nVehLeft="29" nVehSeen="34" meanSpeed="7.07" meanTimeLoss="12.52" meanOccupancy="16.31" maxOccupancy="24.98" meanMaxJamLengthInVehicles="2.83" meanMaxJamLengthInMeters="18.12" maxJamLengthInVehicles="8" maxJamLengthInMeters="54.91" jamLengthInVehiclesSum="284" jamLengthInMetersSum="1816.26" meanHaltingDuration="21.45" maxHaltingDuration="49.00" haltingDurationSum="236.00" meanIntervalHaltingDuration="21.45" maxIntervalHaltingDuration="49.00" intervalHaltingDurationSum="236.00" startedHalts="11.00" meanVehicleNumber="9.95" maxVehicleNumber="15" />
   <interval begin="21800.00" end="21900.00" id="e2_L64_1_3" sampledSeconds="1289.06" nVehEntered="29" nVehLeft="16" nVehSeen="34" meanSpeed="4.27" meanTimeLoss="24.89" meanOccupancy="21.62" maxOccupancy="33.31" meanMaxJamLengthInVehicles="7.69" meanMaxJamLengthInMeters="51.40" maxJamLengthInVehicles="14" maxJamLengthInMeters="95.51" jamLengthInVehiclesSum="769" jamLengthInMetersSum="5140.34" meanHaltingDuration="56.14" maxHaltingDuration="105.00" haltingDurationSum="786.00" meanIntervalHaltingDuration="55.78" maxIntervalHaltingDuration="100.00" intervalHaltingDurationSum="781.00" startedHalts="14.00" meanVehicleNumber="13.04" maxVehicleNumber="20" />
   <interval begin="21900.00" end="22000.00" id="e2_L64_1_3" sampledSeconds="1726.37" nVehEntered="28" nVehLeft="27" nVehSeen="46" meanSpeed="3.19" meanTimeLoss="27.86" meanOccupancy="28.72" maxOccupancy="37.20" meanMaxJamLengthInVehicles="9.95" meanMaxJamLengthInMeters="67.76" maxJamLengthInVehicles="17" maxJamLengthInMeters="117.25" jamLengthInVehiclesSum="997" jamLengthInMetersSum="6784.36" meanHaltingDuration="44.15" maxHaltingDuration="124.00" haltingDurationSum="1810.00" meanIntervalHaltingDuration="24.98" maxIntervalHaltingDuration="46.00" intervalHaltingDurationSum="1024.00" startedHalts="27.00" meanVehicleNumber="17.46" maxVehicleNumber="23" />
   <interval begin="22000.00" end="22100.00" id="e2_L64_1_3" sampledSeconds="2438.41" nVehEntered="28" nVehLeft="23" nVehSeen="47" meanSpeed="1.42" meanTimeLoss="46.00" meanOccupancy="40.65" maxOccupancy="48.30" meanMaxJamLengthInVehicles="20.51" meanMaxJamLengthInMeters="141.24" maxJamLengthInVehicles="26" maxJamLengthInMeters="180.56" jamLengthInVehiclesSum="2052" jamLengthInMetersSum="14128.50" meanHaltingDuration="81.22" maxHaltingDuration="127.00" haltingDurationSum="2518.00" meanIntervalHaltingDuration="66.68" maxIntervalHaltingDuration="100.00" intervalHaltingDurationSum="2067.00" startedHalts="15.00" meanVehicleNumber="24.54" maxVehicleNumber="29" />
   <interval begin="22100.00" end="22200.00" id="e2_L64_1_3" sampledSeconds="2596.47" nVehEntered="28" nVehLeft="21" nVehSeen="52" meanSpeed="1.51" meanTimeLoss="43.89" meanOccupancy="43.32" maxOccupancy="52.97" meanMaxJamLengthInVehicles="18.56" meanMaxJamLengthInMeters="127.99" maxJamLengthInVehicles="29" maxJamLengthInMeters="200.38" jamLengthInVehiclesSum="1877" jamLengthInMetersSum="12907.97" meanHaltingDuration="37.12" maxHaltingDuration="109.00" haltingDurationSum="2858.00" meanIntervalHaltingDuration="25.17" maxIntervalHaltingDuration="88.00" intervalHaltingDurationSum="1938.00" startedHalts="64.00" meanVehicleNumber="26.13" maxVehicleNumber="32" />
   <interval begin="22200.00" end="22300.00" id="e2_L64_1_3" sampledSeconds="3206.29" nVehEntered="25" nVehLeft="26" nVehSeen="56" meanSpeed="0.87" meanTimeLoss="53.26" meanOccupancy="53.25" maxOccupancy="59.96" meanMaxJamLengthInVehicles="24.53" meanMaxJamLengthInMeters="170.38" maxJamLengthInVehicles="35" maxJamLengthInMeters="243.16" jamLengthInVehiclesSum="2561" jamLengthInMetersSum="17734.53" meanHaltingDuration="50.52" maxHaltingDuration="129.00" haltingDurationSum="4345.00" meanIntervalHaltingDuration="30.32" maxIntervalHaltingDuration="84.00" intervalHaltingDurationSum="2608.00" startedHalts="63.00" meanVehicleNumber="32.22" maxVehicleNumber="37" />
   <interval begin="22300.00" end="22400.00" id="e2_L64_1_3" sampledSeconds="3526.36" nVehEntered="21" nVehLeft="12" nVehSeen="51" meanSpeed="0.29" meanTimeLoss="67.54" meanOccupancy="58.77" maxOccupancy="64.96" meanMaxJamLengthInVehicles="32.69" meanMaxJamLengthInMeters="231.64" maxJamLengthInVehicles="39" maxJamLengthInMeters="277.27" jamLengthInVehiclesSum="3273" jamLengthInMetersSum="23182.56" meanHaltingDuration="66.42" maxHaltingDuration="129.00" haltingDurationSum="3520.00" meanIntervalHaltingDuration="62.45" maxIntervalHaltingDuration="100.00" intervalHaltingDurationSum="3310.00" startedHalts="37.00" meanVehicleNumber="35.37" maxVehicleNumber="39" />
   <interval begin="22400.00" end="22500.00" id="e2_L64_1_3" sampledSeconds="3293.46" nVehEntered="17" nVehLeft="19" nVehSeen="56" meanSpeed="0.75" meanTimeLoss="55.26" meanOccupancy="54.73" maxOccupancy="64.49" meanMaxJamLengthInVehicles="23.98" meanMaxJamLengthInMeters="173.70" maxJamLengthInVehicles="39" maxJamLengthInMeters="278.58" jamLengthInVehiclesSum="2511" jamLengthInMetersSum="18112.87" meanHaltingDuration="56.79" maxHaltingDuration="130.00" haltingDurationSum="6077.00" meanIntervalHaltingDuration="24.08" maxIntervalHaltingDuration="68.00" intervalHaltingDurationSum="2577.00" startedHalts="69.00" meanVehicleNumber="33.06" maxVehicleNumber="39" />
   <interval begin="22500.00" end="22600.00" id="e2_L64_1_3" sampledSeconds="3540.00" nVehEntered="3" nVehLeft="13" nVehSeen="40" meanSpeed="0.33" meanTimeLoss="86.15" meanOccupancy="58.49" maxOccupancy="62.97" meanMaxJamLengthInVehicles="32.50" meanMaxJamLengthInMeters="238.31" maxJamLengthInVehicles="38" maxJamLengthInMeters="277.60" jamLengthInVehiclesSum="3264" jamLengthInMetersSum="23905.38" meanHaltingDuration="89.42" maxHaltingDuration="132.00" haltingDurationSum="4739.00" meanIntervalHaltingDuration="61.64" maxIntervalHaltingDuration="100.00" intervalHaltingDurationSum="3267.00" startedHalts="18.00" meanVehicleNumber="35.47" maxVehicleNumber="39" />
   <interval begin="22600.00" end="22700.00" id="e2_L64_1_3" sampledSeconds="3164.98" nVehEntered="19" nVehLeft="10" nVehSeen="46" meanSpeed="0.54" meanTimeLoss="65.80" meanOccupancy="52.62" maxOccupancy="59.64" meanMaxJamLengthInVehicles="26.45" meanMaxJamLengthInMeters="202.00" maxJamLengthInVehicles="36" maxJamLengthInMeters="276.38" jamLengthInVehiclesSum="2738" jamLengthInMetersSum="20838.17" meanHaltingDuration="66.15" maxHaltingDuration="132.00" haltingDurationSum="4300.00" meanIntervalHaltingDuration="42.86" maxIntervalHaltingDuration="100.00" intervalHaltingDurationSum="2786.00" startedHalts="52.00" meanVehicleNumber="31.74" maxVehicleNumber="36" />
   <interval begin="22700.00" end="22800.00" id="e2_L64_1_3" sampledSeconds="3060.82" nVehEntered="5" nVehLeft="12" nVehSeen="41" meanSpeed="0.68" meanTimeLoss="70.57" meanOccupancy="50.59" maxOccupancy="59.64" meanMaxJamLengthInVehicles="23.13" meanMaxJamLengthInMeters="181.69" maxJamLengthInVehicles="36" maxJamLengthInMeters="276.38" jamLengthInVehiclesSum="2431" jamLengthInMetersSum="19009.64" meanHaltingDuration="54.54" maxHaltingDuration="130.00" haltingDurationSum="5072.00" meanIntervalHaltingDuration="25.92" maxIntervalHaltingDuration="78.00" intervalHaltingDurationSum="2411.00" startedHalts="58.00" meanVehicleNumber="30.66" maxVehicleNumber="36" />
   <interval begin="22800.00" end="22900.00" id="e2_L64_1_3" sampledSeconds="3104.78" nVehEntered="6" nVehLeft="7" nVehSeen="35" meanSpeed="0.11" meanTimeLoss="87.95" meanOccupancy="51.38" maxOccupancy="52.98" meanMaxJamLengthInVehicles="30.08" meanMaxJamLengthInMeters="259.58" maxJamLengthInVehicles="32" maxJamLengthInMeters="277.11" jamLengthInVehiclesSum="3012" jamLengthInMetersSum="25980.16" meanHaltingDuration="98.89" maxHaltingDuration="129.00" haltingDurationSum="3659.00" meanIntervalHaltingDuration="81.67" maxIntervalHaltingDuration="100.00" intervalHaltingDurationSum="3022.00" startedHalts="12.00" meanVehicleNumber="31.07" maxVehicleNumber="32" />
   <interval begin="22900.00" end="23000.00" id="e2_L64_1_3" sampledSeconds="2598.88" nVehEntered="15" nVehLeft="14" nVehSeen="43" meanSpeed="0.69" meanTimeLoss="57.09" meanOccupancy="43.11" maxOccupancy="48.30" meanMaxJamLengthInVehicles="19.52" meanMaxJamLengthInMeters="176.27" maxJamLengthInVehicles="29" maxJamLengthInMeters="277.28" jamLengthInVehiclesSum="2038" jamLengthInMetersSum="18272.93" meanHaltingDuration="45.72" maxHaltingDuration="128.00" haltingDurationSum="4252.00" meanIntervalHaltingDuration="22.29" maxIntervalHaltingDuration="88.00" intervalHaltingDurationSum="2073.00" startedHalts="71.00" meanVehicleNumber="26.07" maxVehicleNumber="29" />
   <interval begin="23000.00" end="23100.00" id="e2_L64_1_3" sampledSeconds="2494.64" nVehEntered="1" nVehLeft="10" nVehSeen="30" meanSpeed="0.64" meanTimeLoss="78.91" meanOccupancy="41.39" maxOccupancy="48.30" meanMaxJamLengthInVehicles="20.54" meanMaxJamLengthInMeters="201.10" maxJamLengthInVehicles="29" maxJamLengthInMeters="277.27" jamLengthInVehiclesSum="2120" jamLengthInMetersSum="20703.23" meanHaltingDuration="81.83" maxHaltingDuration="131.00" haltingDurationSum="3846.00" meanIntervalHaltingDuration="45.49" maxIntervalHaltingDuration="99.00" intervalHaltingDurationSum="2138.00" startedHalts="18.00" meanVehicleNumber="25.00" maxVehicleNumber="29" />
   <interval begin="23100.00" end="23200.00" id="e2_L64_1_3" sampledSeconds="2603.80" nVehEntered="13" nVehLeft="5" nVehSeen="33" meanSpeed="0.24" meanTimeLoss="77.36" meanOccupancy="43.19" maxOccupancy="46.32" meanMaxJamLengthInVehicles="24.31" meanMaxJamLengthInMeters="242.82" maxJamLengthInVehicles="28" maxJamLengthInMeters="276.38" jamLengthInVehiclesSum="2434" jamLengthInMetersSum="24296.11" meanHaltingDuration="65.42" maxHaltingDuration="125.00" haltingDurationSum="2617.00" meanIntervalHaltingDuration="61.55" maxIntervalHaltingDuration="100.00" intervalHaltingDurationSum="2462.00" startedHalts="30.00" meanVehicleNumber="26.09" maxVehicleNumber="28" />
   <interval begin="23200.00" end="23300.00" id="e2_L64_1_3" sampledSeconds="2313.82" nVehEntered="15" nVehLeft="17" nVehSeen="43" meanSpeed="0.90" meanTimeLoss="49.91" meanOccupancy="38.27" maxOccupancy="46.32" meanMaxJamLengthInVehicles="16.72" meanMaxJamLengthInMeters="168.73" maxJamLengthInVehicles="28" maxJamLengthInMeters="277.41" jamLengthInVehiclesSum="1735" jamLengthInMetersSum="17402.91" meanHaltingDuration="51.98" maxHaltingDuration="126.00" haltingDurationSum="4262.00" meanIntervalHaltingDuration="21.79" maxIntervalHaltingDuration="65.00" intervalHaltingDurationSum="1787.00" startedHalts="55.00" meanVehicleNumber="23.24" maxVehicleNumber="28" />
   <interval begin="23300.00" end="23400.00" id="e2_L64_1_3" sampledSeconds="2685.14" nVehEntered="3" nVehLeft="5" nVehSeen="29" meanSpeed="0.22" meanTimeLoss="90.97" meanOccupancy="44.39" maxOccupancy="46.32" meanMaxJamLengthInVehicles="24.82" meanMaxJamLengthInMeters="237.61" maxJamLengthInVehicles="28" maxJamLengthInMeters="276.38" jamLengthInVehiclesSum="2499" jamLengthInMetersSum="23867.93" meanHaltingDuration="83.58" maxHaltingDuration="130.00" haltingDurationSum="3427.00" meanIntervalHaltingDuration="61.32" maxIntervalHaltingDuration="100.00" intervalHaltingDurationSum="2514.00" startedHalts="15.00" meanVehicleNumber="26.90" maxVehicleNumber="28" />
   <interval begin="23400.00" end="23500.00" id="e2_L64_1_3" sampledSeconds="2783.49" nVehEntered="18" nVehLeft="12" nVehSeen="42" meanSpeed="0.46" meanTimeLoss="63.85" meanOccupancy="46.34" maxOccupancy="50.41" meanMaxJamLengthInVehicles="22.75" meanMaxJamLengthInMeters="204.09" maxJamLengthInVehicles="30" maxJamLengthInMeters="263.42" jamLengthInVehiclesSum="2336" jamLengthInMetersSum="20935.84" meanHaltingDuration="56.44" maxHaltingDuration="129.00" haltingDurationSum="3499.00" meanIntervalHaltingDuration="38.47" maxIntervalHaltingDuration="100.00" intervalHaltingDurationSum="2385.00" startedHalts="49.00" meanVehicleNumber="27.90" maxVehicleNumber="31" />
   <interval begin="23500.00" end="23600.00" id="e2_L64_1_3" sampledSeconds="2551.30" nVehEntered="10" nVehLeft="16" nVehSeen="40" meanSpeed="1.07" meanTimeLoss="58.34" meanOccupancy="42.33" maxOccupancy="49.97" meanMaxJamLengthInVehicles="17.45" meanMaxJamLengthInMeters="145.77" maxJamLengthInVehicles="30" maxJamLengthInMeters="263.29" jamLengthInVehiclesSum="1774" jamLengthInMetersSum="14719.37" meanHaltingDuration="37.62" maxHaltingDuration="132.00" haltingDurationSum="4138.00" meanIntervalHaltingDuration="16.84" maxIntervalHaltingDuration="78.00" intervalHaltingDurationSum="1852.00" startedHalts="82.00" meanVehicleNumber="25.58" maxVehicleNumber="30" />
   <interval begin="23600.00" end="23700.00" id="e2_L64_1_3" sampledSeconds="2817.22" nVehEntered="16" nVehLeft="7" nVehSeen="40" meanSpeed="0.25" meanTimeLoss="69.02" meanOccupancy="47.00" maxOccupancy="53.72" meanMaxJamLengthInVehicles="26.46" meanMaxJamLengthInMeters="225.63" maxJamLengthInVehicles="31" maxJamLengthInMeters="264.19" jamLengthInVehiclesSum="2656" jamLengthInMetersSum="22613.79" meanHaltingDuration="65.68" maxHaltingDuration="126.00" haltingDurationSum="2890.00" meanIntervalHaltingDuration="60.98" maxIntervalHaltingDuration="100.00" intervalHaltingDurationSum="2683.00" startedHalts="27.00" meanVehicleNumber="28.26" maxVehicleNumber="33" />
   <interval begin="23700.00" end="23800.00" id="e2_L64_1_3" sampledSeconds="2444.56" nVehEntered="10" nVehLeft="22" nVehSeen="43" meanSpeed="1.43" meanTimeLoss="50.35" meanOccupancy="40.28" maxOccupancy="54.64" meanMaxJamLengthInVehicles="17.96" meanMaxJamLengthInMeters="153.60" maxJamLengthInVehicles="33" maxJamLengthInMeters="277.60" jamLengthInVehiclesSum="1819" jamLengthInMetersSum="15512.09" meanHaltingDuration="67.31" maxHaltingDuration="146.00" haltingDurationSum="4577.00" meanIntervalHaltingDuration="27.00" maxIntervalHaltingDuration="71.00" intervalHaltingDurationSum="1836.00" startedHalts="39.00" meanVehicleNumber="24.53" maxVehicleNumber="33" />
   <interval begin="23800.00" end="23900.00" id="e2_L64_1_3" sampledSeconds="2491.79" nVehEntered="12" nVehLeft="5" nVehSeen="33" meanSpeed="0.28" meanTimeLoss="73.81" meanOccupancy="41.57" maxOccupancy="47.59" meanMaxJamLengthInVehicles="24.03" meanMaxJamLengthInMeters="206.48" maxJamLengthInVehicles="28" maxJamLengthInMeters="235.36" jamLengthInVehiclesSum="2403" jamLengthInMetersSum="20647.75" meanHaltingDuration="98.14" maxHaltingDuration="141.00" haltingDurationSum="2748.00" meanIntervalHaltingDuration="86.18" maxIntervalHaltingDuration="100.00" intervalHaltingDurationSum="2413.00" startedHalts="10.00" meanVehicleNumber="24.98" maxVehicleNumber="29" />
   <interval begin="23900.00" end="24000.00" id="e2_L64_1_3" sampledSeconds="3062.88" nVehEntered="12" nVehLeft="11" nVehSeen="40" meanSpeed="0.15" meanTimeLoss="75.68" meanOccupancy="50.97" maxOccupancy="56.30" meanMaxJamLengthInVehicles="29.56" meanMaxJamLengthInMeters="243.11" maxJamLengthInVehicles="33" maxJamLengthInMeters="270.28" jamLengthInVehiclesSum="2956" jamLengthInMetersSum="24310.95" meanHaltingDuration="146.51" maxHaltingDuration="221.00" haltingDurationSum="5714.00" meanIntervalHaltingDuration="76.05" maxIntervalHaltingDuration="100.00" intervalHaltingDurationSum="2966.00" startedHalts="13.00" meanVehicleNumber="30.73" maxVehicleNumber="34" />
   <interval begin="24000.00" end="24100.00" id="e2_L64_1_3" sampledSeconds="2564.37" nVehEntered="15" nVehLeft="15" nVehSeen="44" meanSpeed="1.39" meanTimeLoss="51.81" meanOccupancy="42.54" maxOccupancy="47.98" meanMaxJamLengthInVehicles="15.67" meanMaxJamLengthInMeters="112.55" maxJamLengthInVehicles="26" maxJamLengthInMeters="186.44" jamLengthInVehiclesSum="1580" jamLengthInMetersSum="11319.96" meanHaltingDuration="53.68" maxHaltingDuration="216.00" haltingDurationSum="4939.00" meanIntervalHaltingDuration="17.54" maxIntervalHaltingDuration="65.00" intervalHaltingDurationSum="1614.00" startedHalts="68.00" meanVehicleNumber="25.74" maxVehicleNumber="29" />
   <interval begin="24100.00" end="24200.00" id="e2_L64_1_3" sampledSeconds="3124.26" nVehEntered="12" nVehLeft="7" nVehSeen="41" meanSpeed="0.22" meanTimeLoss="74.88" meanOccupancy="52.09" maxOccupancy="58.30" meanMaxJamLengthInVehicles="30.38" meanMaxJamLengthInMeters="217.01" maxJamLengthInVehicles="34" maxJamLengthInMeters="242.34" jamLengthInVehiclesSum="3038" jamLengthInMetersSum="21701.18" meanHaltingDuration="122.73" maxHaltingDuration="165.00" haltingDurationSum="4173.00" meanIntervalHaltingDuration="89.59" maxIntervalHaltingDuration="100.00" intervalHaltingDurationSum="3046.00" startedHalts="8.00" meanVehicleNumber="31.31" maxVehicleNumber="35" />
   <interval begin="24200.00" end="24300.00" id="e2_L64_1_3" sampledSeconds="3719.43" nVehEntered="9" nVehLeft="4" nVehSeen="43" meanSpeed="0.04" meanTimeLoss="86.23" meanOccupancy="61.90" maxOccupancy="64.64" meanMaxJamLengthInVehicles="36.90" meanMaxJamLengthInMeters="262.38" maxJamLengthInVehicles="39" maxJamLengthInMeters="276.38" jamLengthInVehiclesSum="3690" jamLengthInMetersSum="26237.60" meanHaltingDuration="201.74" maxHaltingDuration="265.00" haltingDurationSum="7868.00" meanIntervalHaltingDuration="94.74" maxIntervalHaltingDuration="100.00" intervalHaltingDurationSum="3695.00" startedHalts="5.00" meanVehicleNumber="37.23" maxVehicleNumber="39" />
   <interval begin="24300.00" end="24400.00" id="e2_L64_1_3" sampledSeconds="3712.60" nVehEntered="0" nVehLeft="11" nVehSeen="39" meanSpeed="0.24" meanTimeLoss="93.36" meanOccupancy="61.35" maxOccupancy="64.64" meanMaxJamLengthInVehicles="34.85" meanMaxJamLengthInMeters="246.54" maxJamLengthInVehicles="39" maxJamLengthInMeters="276.38" jamLengthInVehiclesSum="3488" jamLengthInMetersSum="24666.84" meanHaltingDuration="241.79" maxHaltingDuration="331.00" haltingDurationSum="11364.00" meanIntervalHaltingDuration="74.38" maxIntervalHaltingDuration="100.00" intervalHaltingDurationSum="3496.00" startedHalts="8.00" meanVehicleNumber="37.18" maxVehicleNumber="39" />
   <interval begin="24400.00" end="24500.00" id="e2_L64_1_3" sampledSeconds="2796.56" nVehEntered="20" nVehLeft="15" nVehSeen="48" meanSpeed="1.28" meanTimeLoss="52.28" meanOccupancy="46.49" maxOccupancy="56.14" meanMaxJamLengthInVehicles="19.63" meanMaxJamLengthInMeters="146.80" maxJamLengthInVehicles="33" maxJamLengthInMeters="263.30" jamLengthInVehiclesSum="1987" jamLengthInMetersSum="14791.98" meanHaltingDuration="65.80" maxHaltingDuration="329.00" haltingDurationSum="6054.00" meanIntervalHaltingDuration="22.23" maxIntervalHaltingDuration="87.00" intervalHaltingDurationSum="2045.00" startedHalts="77.00" meanVehicleNumber="28.10" maxVehicleNumber="34" />
   <interval begin="24500.00" end="24600.00" id="e2_L64_1_3" sampledSeconds="3358.34" nVehEntered="3" nVehLeft="10" nVehSeen="36" meanSpeed="0.17" meanTimeLoss="92.03" meanOccupancy="55.58" maxOccupancy="57.97" meanMaxJamLengthInVehicles="32.51" meanMaxJamLengthInMeters="259.51" maxJamLengthInVehicles="35" maxJamLengthInMeters="276.38" jamLengthInVehiclesSum="3251" jamLengthInMetersSum="25951.48" meanHaltingDuration="145.43" maxHaltingDuration="163.00" haltingDurationSum="5090.00" meanIntervalHaltingDuration="92.94" maxIntervalHaltingDuration="100.00" intervalHaltingDurationSum="3253.00" startedHalts="2.00" meanVehicleNumber="33.66" maxVehicleNumber="35" />
   <interval begin="24600.00" end="24700.00" id="e2_L64_1_3" sampledSeconds="2503.75" nVehEntered="19" nVehLeft="15" nVehSeen="45" meanSpeed="1.16" meanTimeLoss="50.47" meanOccupancy="41.56" maxOccupancy="49.97" meanMaxJamLengthInVehicles="18.13" meanMaxJamLengthInMeters="152.30" maxJamLengthInVehicles="29" maxJamLengthInMeters="242.32" jamLengthInVehiclesSum="1850" jamLengthInMetersSum="15460.65" meanHaltingDuration="59.57" maxHaltingDuration="159.00" haltingDurationSum="4289.00" meanIntervalHaltingDuration="26.44" maxIntervalHaltingDuration="82.00" intervalHaltingDurationSum="1904.00" startedHalts="54.00" meanVehicleNumber="25.15" maxVehicleNumber="30" />
   <interval begin="24700.00" end="24800.00" id="e2_L64_1_3" sampledSeconds="3234.60" nVehEntered="8" nVehLeft="4" nVehSeen="38" meanSpeed="0.04" meanTimeLoss="84.85" meanOccupancy="53.76" maxOccupancy="56.31" meanMaxJamLengthInVehicles="32.07" meanMaxJamLengthInMeters="263.42" maxJamLengthInVehicles="34" maxJamLengthInMeters="276.38" jamLengthInVehiclesSum="3207" jamLengthInMetersSum="26341.62" meanHaltingDuration="141.79" maxHaltingDuration="182.00" haltingDurationSum="4821.00" meanIntervalHaltingDuration="94.47" maxIntervalHaltingDuration="100.00" intervalHaltingDurationSum="3212.00" startedHalts="5.00" meanVehicleNumber="32.37" maxVehicleNumber="34" />
   <interval begin="24800.00" end="24900.00" id="e2_L64_1_3" sampledSeconds="2622.10" nVehEntered="13" nVehLeft="22" nVehSeen="47" meanSpeed="1.14" meanTimeLoss="50.70" meanOccupancy="43.27" maxOccupancy="56.31" meanMaxJamLengthInVehicles="19.52" meanMaxJamLengthInMeters="162.48" maxJamLengthInVehicles="34" maxJamLengthInMeters="277.12" jamLengthInVehiclesSum="1992" jamLengthInMetersSum="16531.22" meanHaltingDuration="82.67" maxHaltingDuration="202.00" haltingDurationSum="6862.00" meanIntervalHaltingDuration="24.59" maxIntervalHaltingDuration="74.00" intervalHaltingDurationSum="2041.00" startedHalts="52.00" meanVehicleNumber="26.36" maxVehicleNumber="34" />
   <interval begin="24900.00" end="25000.00" id="e2_L64_1_3" sampledSeconds="2774.42" nVehEntered="16" nVehLeft="12" nVehSeen="41" meanSpeed="0.72" meanTimeLoss="63.76" meanOccupancy="46.15" maxOccupancy="49.97" meanMaxJamLengthInVehicles="20.78" meanMaxJamLengthInMeters="172.02" maxJamLengthInVehicles="28" maxJamLengthInMeters="243.17" jamLengthInVehiclesSum="2176" jamLengthInMetersSum="17860.56" meanHaltingDuration="31.25" maxHaltingDuration="85.00" haltingDurationSum="2656.00" meanIntervalHaltingDuration="26.26" maxIntervalHaltingDuration="80.00" intervalHaltingDurationSum="2232.00" startedHalts="64.00" meanVehicleNumber="27.84" maxVehicleNumber="30" />
   <interval begin="25000.00" end="25100.00" id="e2_L64_1_3" sampledSeconds="3087.64" nVehEntered="14" nVehLeft="9" nVehSeen="43" meanSpeed="0.27" meanTimeLoss="70.23" meanOccupancy="51.49" maxOccupancy="58.14" meanMaxJamLengthInVehicles="28.86" meanMaxJamLengthInMeters="220.15" maxJamLengthInVehicles="34" maxJamLengthInMeters="256.61" jamLengthInVehiclesSum="2890" jamLengthInMetersSum="22033.57" meanHaltingDuration="71.61" maxHaltingDuration="127.00" haltingDurationSum="3151.00" meanIntervalHaltingDuration="66.16" maxIntervalHaltingDuration="100.00" intervalHaltingDurationSum="2911.00" startedHalts="28.00" meanVehicleNumber="30.95" maxVehicleNumber="35" />
   <interval begin="25100.00" end="25200.00" id="e2_L64_1_3" sampledSeconds="2461.69" nVehEntered="14" nVehLeft="28" nVehSeen="48" meanSpeed="2.10" meanTimeLoss="42.64" meanOccupancy="40.64" maxOccupancy="59.65" meanMaxJamLengthInVehicles="16.08" meanMaxJamLengthInMeters="117.70" maxJamLengthInVehicles="35" maxJamLengthInMeters="264.59" jamLengthInVehiclesSum="1615" jamLengthInMetersSum="11802.70" meanHaltingDuration="61.40" maxHaltingDuration="137.00" haltingDurationSum="4789.00" meanIntervalHaltingDuration="21.20" maxIntervalHaltingDuration="62.00" intervalHaltingDurationSum="1654.00" startedHalts="47.00" meanVehicleNumber="24.76" maxVehicleNumber="36" />
   <interval begin="25200.00" end="25300.00" id="e2_L64_1_3" sampledSeconds="2344.77" nVehEntered="15" nVehLeft="8" nVehSeen="35" meanSpeed="0.71" meanTimeLoss="63.16" meanOccupancy="39.13" maxOccupancy="44.97" meanMaxJamLengthInVehicles="21.78" meanMaxJamLengthInMeters="149.92" maxJamLengthInVehicles="26" maxJamLengthInMeters="179.45" jamLengthInVehiclesSum="2178" jamLengthInMetersSum="14992.03" meanHaltingDuration="96.42" maxHaltingDuration="131.00" haltingDurationSum="2507.00" meanIntervalHaltingDuration="84.08" maxIntervalHaltingDuration="100.00" intervalHaltingDurationSum="2186.00" startedHalts="8.00" meanVehicleNumber="23.53" maxVehicleNumber="27" />
   <interval begin="25300.00" end="25400.00" id="e2_L64_1_3" sampledSeconds="3056.60" nVehEntered="13" nVehLeft="7" nVehSeen="40" meanSpeed="0.27" meanTimeLoss="74.74" meanOccupancy="50.98" maxOccupancy="56.63" meanMaxJamLengthInVehicles="29.62" meanMaxJamLengthInMeters="204.71" maxJamLengthInVehicles="33" maxJamLengthInMeters="228.34" jamLengthInVehiclesSum="2962" jamLengthInMetersSum="20470.53" meanHaltingDuration="165.94" maxHaltingDuration="231.00" haltingDurationSum="5476.00" meanIntervalHaltingDuration="89.97" maxIntervalHaltingDuration="100.00" intervalHaltingDurationSum="2969.00" startedHalts="7.00" meanVehicleNumber="30.65" maxVehicleNumber="34" />
   <interval begin="25400.00" end="25500.00" id="e2_L64_1_3" sampledSeconds="3683.74" nVehEntered="12" nVehLeft="5" nVehSeen="45" meanSpeed="0.06" meanTimeLoss="81.44" meanOccupancy="61.35" maxOccupancy="66.30" meanMaxJamLengthInVehicles="36.42" meanMaxJamLengthInMeters="252.10" maxJamLengthInVehicles="40" maxJamLengthInMeters="276.38" jamLengthInVehiclesSum="3642" jamLengthInMetersSum="25210.22" meanHaltingDuration="228.12" maxHaltingDuration="331.00" haltingDurationSum="9125.00" meanIntervalHaltingDuration="91.22" maxIntervalHaltingDuration="100.00" intervalHaltingDurationSum="3649.00" startedHalts="7.00" meanVehicleNumber="36.90" maxVehicleNumber="40" />
   <interval begin="25500.00" end="25600.00" id="e2_L64_1_3" sampledSeconds="4000.00" nVehEntered="0" nVehLeft="0" nVehSeen="40" meanSpeed="0.00" meanTimeLoss="100.00" meanOccupancy="66.30" maxOccupancy="66.30" meanMaxJamLengthInVehicles="40.00" meanMaxJamLengthInMeters="276.38" maxJamLengthInVehicles="40" maxJamLengthInMeters="276.38" jamLengthInVehiclesSum="4000" jamLengthInMetersSum="27637.90" meanHaltingDuration="328.12" maxHaltingDuration="431.00" haltingDurationSum="13125.00" meanIntervalHaltingDuration="100.00" maxIntervalHaltingDuration="100.00" intervalHaltingDurationSum="4000.00" startedHalts="0.00" meanVehicleNumber="40.00" maxVehicleNumber="40" />
   <interval begin="25600.00" end="25700.00" id="e2_L64_1_3" sampledSeconds="3343.32" nVehEntered="15" nVehLeft="18" nVehSeen="55" meanSpeed="0.86" meanTimeLoss="56.56" meanOccupancy="55.39" maxOccupancy="66.30" meanMaxJamLengthInVehicles="24.95" meanMaxJamLengthInMeters="173.50" maxJamLengthInVehicles="40" maxJamLengthInMeters="277.42" jamLengthInVehiclesSum="2606" jamLengthInMetersSum="18082.40" meanHaltingDuration="147.38" maxHaltingDuration="437.00" haltingDurationSum="15622.00" meanIntervalHaltingDuration="24.66" maxIntervalHaltingDuration="65.00" intervalHaltingDurationSum="2614.00" startedHalts="67.00" meanVehicleNumber="33.54" maxVehicleNumber="40" />
   <interval begin="25700.00" end="25800.00" id="e2_L64_1_3" sampledSeconds="3793.17" nVehEntered="1" nVehLeft="0" nVehSeen="38" meanSpeed="0.00" meanTimeLoss="99.81" meanOccupancy="62.87" maxOccupancy="62.97" meanMaxJamLengthInVehicles="37.90" meanMaxJamLengthInMeters="275.07" maxJamLengthInVehicles="38" maxJamLengthInMeters="276.38" jamLengthInVehiclesSum="3790" jamLengthInMetersSum="27507.09" meanHaltingDuration="134.42" maxHaltingDuration="165.00" haltingDurationSum="5108.00" meanIntervalHaltingDuration="99.79" maxIntervalHaltingDuration="100.00" intervalHaltingDurationSum="3792.00" startedHalts="2.00" meanVehicleNumber="37.94" maxVehicleNumber="38" />