<?xml version="1.0" encoding="UTF-8"?>

<!-- generated on Sun Feb 17 15:57:00 2019 by 
<configuration xmlns:xsi="http://www.w3.org/2001/XMLSchema-instance" xsi:noNamespaceSchemaLocation="http://sumo.dlr.de/xsd/Configuration.xsd">

    <input>
        <net-file value="/home/sda/Documents/sumo-sathorn-ray/models/sathorn-morning/sathorn_w_fixed_20160404.net.xml"/>
        <route-files value="/home/sda/Documents/sumo-sathorn-ray/models/sathorn-morning/Great-route/sathorn_w_20160422edit2.rou.xml"/>
        <additional-files value="/home/sda/Documents/sumo-sathorn-ray/models/sathorn-morning/sathon_wide_tls_20160418_edited.add.xml,/home/sda/Documents/sumo-sathorn-ray/detectors/sathorn_w_detectors.add.xml"/>
    </input>

    <time>
        <begin value="21600"/>
        <end value="32400"/>
        <step-length value="1"/>
    </time>

    <processing>
        <no-internal-links value="true"/>
        <ignore-junction-blocker value="-1"/>
        <time-to-teleport value="-1"/>
        <eager-insert value="true"/>
        <time-to-impatience value="300"/>
    </processing>

    <report>
        <no-warnings value="true"/>
    </report>

    <random_number>
        <random value="false"/>
        <seed value="20"/>
    </random_number>

    <gui_only>
        <gui-settings-file value="/home/sda/Documents/sumo-sathorn-ray/gui-settings/gui-settings-file-surasak.xml"/>
        <quit-on-end value="true"/>
        <start value="true"/>
        <tracker-interval value="1"/>
    </gui_only>

</configuration>
-->

<detector xmlns:xsi="http://www.w3.org/2001/XMLSchema-instance" xsi:noNamespaceSchemaLocation="http://sumo.dlr.de/xsd/det_e2_file.xsd">
   <interval begin="21600.00" end="21700.00" id="e2_L197#2_4_1" sampledSeconds="0.00" nVehEntered="0" nVehLeft="0" nVehSeen="0" meanSpeed="-1.00" meanTimeLoss="-1.00" meanOccupancy="0.00" maxOccupancy="0.00" meanMaxJamLengthInVehicles="0.00" meanMaxJamLengthInMeters="0.00" maxJamLengthInVehicles="0" maxJamLengthInMeters="0.00" jamLengthInVehiclesSum="0" jamLengthInMetersSum="0.00" meanHaltingDuration="0.00" maxHaltingDuration="0.00" haltingDurationSum="0.00" meanIntervalHaltingDuration="0.00" maxIntervalHaltingDuration="0.00" intervalHaltingDurationSum="0.00" startedHalts="0.00" meanVehicleNumber="0.00" maxVehicleNumber="0" />
   <interval begin="21700.00" end="21800.00" id="e2_L197#2_4_1" sampledSeconds="0.00" nVehEntered="0" nVehLeft="0" nVehSeen="0" meanSpeed="-1.00" meanTimeLoss="-1.00" meanOccupancy="0.00" maxOccupancy="0.00" meanMaxJamLengthInVehicles="0.00" meanMaxJamLengthInMeters="0.00" maxJamLengthInVehicles="0" maxJamLengthInMeters="0.00" jamLengthInVehiclesSum="0" jamLengthInMetersSum="0.00" meanHaltingDuration="0.00" maxHaltingDuration="0.00" haltingDurationSum="0.00" meanIntervalHaltingDuration="0.00" maxIntervalHaltingDuration="0.00" intervalHaltingDurationSum="0.00" startedHalts="0.00" meanVehicleNumber="0.00" maxVehicleNumber="0" />
   <interval begin="21800.00" end="21900.00" id="e2_L197#2_4_1" sampledSeconds="0.00" nVehEntered="0" nVehLeft="0" nVehSeen="0" meanSpeed="-1.00" meanTimeLoss="-1.00" meanOccupancy="0.00" maxOccupancy="0.00" meanMaxJamLengthInVehicles="0.00" meanMaxJamLengthInMeters="0.00" maxJamLengthInVehicles="0" maxJamLengthInMeters="0.00" jamLengthInVehiclesSum="0" jamLengthInMetersSum="0.00" meanHaltingDuration="0.00" maxHaltingDuration="0.00" haltingDurationSum="0.00" meanIntervalHaltingDuration="0.00" maxIntervalHaltingDuration="0.00" intervalHaltingDurationSum="0.00" startedHalts="0.00" meanVehicleNumber="0.00" maxVehicleNumber="0" />
   <interval begin="21900.00" end="22000.00" id="e2_L197#2_4_1" sampledSeconds="52.78" nVehEntered="7" nVehLeft="5" nVehSeen="7" meanSpeed="1.41" meanTimeLoss="6.69" meanOccupancy="5.13" maxOccupancy="21.22" meanMaxJamLengthInVehicles="0.37" meanMaxJamLengthInMeters="2.00" maxJamLengthInVehicles="2" maxJamLengthInMeters="11.77" jamLengthInVehiclesSum="37" jamLengthInMetersSum="200.37" meanHaltingDuration="19.50" maxHaltingDuration="23.00" haltingDurationSum="39.00" meanIntervalHaltingDuration="19.50" maxIntervalHaltingDuration="23.00" intervalHaltingDurationSum="39.00" startedHalts="2.00" meanVehicleNumber="0.55" maxVehicleNumber="2" />
   <interval begin="22000.00" end="22100.00" id="e2_L197#2_4_1" sampledSeconds="506.67" nVehEntered="4" nVehLeft="0" nVehSeen="6" meanSpeed="0.09" meanTimeLoss="83.83" meanOccupancy="57.75" maxOccupancy="68.87" meanMaxJamLengthInVehicles="4.92" meanMaxJamLengthInMeters="32.03" maxJamLengthInVehicles="6" maxJamLengthInMeters="39.59" jamLengthInVehiclesSum="492" jamLengthInMetersSum="3202.97" meanHaltingDuration="89.17" maxHaltingDuration="123.00" haltingDurationSum="535.00" meanIntervalHaltingDuration="82.67" maxIntervalHaltingDuration="100.00" intervalHaltingDurationSum="496.00" startedHalts="4.00" meanVehicleNumber="5.08" maxVehicleNumber="6" />
   <interval begin="22100.00" end="22200.00" id="e2_L197#2_4_1" sampledSeconds="600.00" nVehEntered="0" nVehLeft="0" nVehSeen="6" meanSpeed="0.00" meanTimeLoss="100.00" meanOccupancy="68.87" maxOccupancy="68.87" meanMaxJamLengthInVehicles="6.00" meanMaxJamLengthInMeters="39.58" maxJamLengthInVehicles="6" maxJamLengthInMeters="39.58" jamLengthInVehiclesSum="600" jamLengthInMetersSum="3957.52" meanHaltingDuration="189.17" maxHaltingDuration="223.00" haltingDurationSum="1135.00" meanIntervalHaltingDuration="100.00" maxIntervalHaltingDuration="100.00" intervalHaltingDurationSum="600.00" startedHalts="0.00" meanVehicleNumber="6.00" maxVehicleNumber="6" />
   <interval begin="22200.00" end="22300.00" id="e2_L197#2_4_1" sampledSeconds="592.47" nVehEntered="1" nVehLeft="1" nVehSeen="7" meanSpeed="0.07" meanTimeLoss="84.14" meanOccupancy="67.51" maxOccupancy="68.87" meanMaxJamLengthInVehicles="5.86" meanMaxJamLengthInMeters="38.98" maxJamLengthInVehicles="6" maxJamLengthInMeters="42.72" jamLengthInVehiclesSum="588" jamLengthInMetersSum="3907.73" meanHaltingDuration="191.78" maxHaltingDuration="316.00" haltingDurationSum="1726.00" meanIntervalHaltingDuration="65.67" maxIntervalHaltingDuration="100.00" intervalHaltingDurationSum="591.00" startedHalts="3.00" meanVehicleNumber="5.94" maxVehicleNumber="6" />
   <interval begin="22300.00" end="22400.00" id="e2_L197#2_4_1" sampledSeconds="592.41" nVehEntered="1" nVehLeft="1" nVehSeen="7" meanSpeed="0.07" meanTimeLoss="84.13" meanOccupancy="67.69" maxOccupancy="68.86" meanMaxJamLengthInVehicles="5.78" meanMaxJamLengthInMeters="38.34" maxJamLengthInVehicles="6" maxJamLengthInMeters="41.58" jamLengthInVehiclesSum="581" jamLengthInMetersSum="3850.53" meanHaltingDuration="148.67" maxHaltingDuration="381.00" haltingDurationSum="1784.00" meanIntervalHaltingDuration="48.92" maxIntervalHaltingDuration="100.00" intervalHaltingDurationSum="587.00" startedHalts="7.00" meanVehicleNumber="5.94" maxVehicleNumber="6" />
   <interval begin="22400.00" end="22500.00" id="e2_L197#2_4_1" sampledSeconds="600.00" nVehEntered="0" nVehLeft="0" nVehSeen="6" meanSpeed="0.00" meanTimeLoss="100.00" meanOccupancy="68.86" maxOccupancy="68.86" meanMaxJamLengthInVehicles="6.00" meanMaxJamLengthInMeters="39.58" maxJamLengthInVehicles="6" maxJamLengthInMeters="39.58" jamLengthInVehiclesSum="600" jamLengthInMetersSum="3957.51" meanHaltingDuration="219.83" maxHaltingDuration="481.00" haltingDurationSum="1319.00" meanIntervalHaltingDuration="100.00" maxIntervalHaltingDuration="100.00" intervalHaltingDurationSum="600.00" startedHalts="0.00" meanVehicleNumber="6.00" maxVehicleNumber="6" />
   <interval begin="22500.00" end="22600.00" id="e2_L197#2_4_1" sampledSeconds="600.00" nVehEntered="0" nVehLeft="0" nVehSeen="6" meanSpeed="0.00" meanTimeLoss="100.00" meanOccupancy="68.86" maxOccupancy="68.86" meanMaxJamLengthInVehicles="6.00" meanMaxJamLengthInMeters="39.58" maxJamLengthInVehicles="6" maxJamLengthInMeters="39.58" jamLengthInVehiclesSum="600" jamLengthInMetersSum="3957.51" meanHaltingDuration="319.83" maxHaltingDuration="581.00" haltingDurationSum="1919.00" meanIntervalHaltingDuration="100.00" maxIntervalHaltingDuration="100.00" intervalHaltingDurationSum="600.00" startedHalts="0.00" meanVehicleNumber="6.00" maxVehicleNumber="6" />
   <interval begin="22600.00" end="22700.00" id="e2_L197#2_4_1" sampledSeconds="600.00" nVehEntered="0" nVehLeft="0" nVehSeen="6" meanSpeed="0.00" meanTimeLoss="100.00" meanOccupancy="68.86" maxOccupancy="68.86" meanMaxJamLengthInVehicles="6.00" meanMaxJamLengthInMeters="39.58" maxJamLengthInVehicles="6" maxJamLengthInMeters="39.58" jamLengthInVehiclesSum="600" jamLengthInMetersSum="3957.51" meanHaltingDuration="419.83" maxHaltingDuration="681.00" haltingDurationSum="2519.00" meanIntervalHaltingDuration="100.00" maxIntervalHaltingDuration="100.00" intervalHaltingDurationSum="600.00" startedHalts="0.00" meanVehicleNumber="6.00" maxVehicleNumber="6" />
   <interval begin="22700.00" end="22800.00" id="e2_L197#2_4_1" sampledSeconds="600.00" nVehEntered="0" nVehLeft="0" nVehSeen="6" meanSpeed="0.00" meanTimeLoss="100.00" meanOccupancy="68.86" maxOccupancy="68.86" meanMaxJamLengthInVehicles="6.00" meanMaxJamLengthInMeters="39.58" maxJamLengthInVehicles="6" maxJamLengthInMeters="39.58" jamLengthInVehiclesSum="600" jamLengthInMetersSum="3957.51" meanHaltingDuration="519.83" maxHaltingDuration="781.00" haltingDurationSum="3119.00" meanIntervalHaltingDuration="100.00" maxIntervalHaltingDuration="100.00" intervalHaltingDurationSum="600.00" startedHalts="0.00" meanVehicleNumber="6.00" maxVehicleNumber="6" />
   <interval begin="22800.00" end="22900.00" id="e2_L197#2_4_1" sampledSeconds="600.00" nVehEntered="0" nVehLeft="0" nVehSeen="6" meanSpeed="0.00" meanTimeLoss="100.00" meanOccupancy="68.86" maxOccupancy="68.86" meanMaxJamLengthInVehicles="6.00" meanMaxJamLengthInMeters="39.58" maxJamLengthInVehicles="6" maxJamLengthInMeters="39.58" jamLengthInVehiclesSum="600" jamLengthInMetersSum="3957.51" meanHaltingDuration="619.83" maxHaltingDuration="881.00" haltingDurationSum="3719.00" meanIntervalHaltingDuration="100.00" maxIntervalHaltingDuration="100.00" intervalHaltingDurationSum="600.00" startedHalts="0.00" meanVehicleNumber="6.00" maxVehicleNumber="6" />
   <interval begin="22900.00" end="23000.00" id="e2_L197#2_4_1" sampledSeconds="600.00" nVehEntered="0" nVehLeft="0" nVehSeen="6" meanSpeed="0.00" meanTimeLoss="100.00" meanOccupancy="68.86" maxOccupancy="68.86" meanMaxJamLengthInVehicles="6.00" meanMaxJamLengthInMeters="39.58" maxJamLengthInVehicles="6" maxJamLengthInMeters="39.58" jamLengthInVehiclesSum="600" jamLengthInMetersSum="3957.51" meanHaltingDuration="719.83" maxHaltingDuration="981.00" haltingDurationSum="4319.00" meanIntervalHaltingDuration="100.00" maxIntervalHaltingDuration="100.00" intervalHaltingDurationSum="600.00" startedHalts="0.00" meanVehicleNumber="6.00" maxVehicleNumber="6" />
   <interval begin="23000.00" end="23100.00" id="e2_L197#2_4_1" sampledSeconds="600.00" nVehEntered="0" nVehLeft="0" nVehSeen="6" meanSpeed="0.00" meanTimeLoss="100.00" meanOccupancy="68.86" maxOccupancy="68.86" meanMaxJamLengthInVehicles="6.00" meanMaxJamLengthInMeters="39.58" maxJamLengthInVehicles="6" maxJamLengthInMeters="39.58" jamLengthInVehiclesSum="600" jamLengthInMetersSum="3957.51" meanHaltingDuration="819.83" maxHaltingDuration="1081.00" haltingDurationSum="4919.00" meanIntervalHaltingDuration="100.00" maxIntervalHaltingDuration="100.00" intervalHaltingDurationSum="600.00" startedHalts="0.00" meanVehicleNumber="6.00" maxVehicleNumber="6" />
   <interval begin="23100.00" end="23200.00" id="e2_L197#2_4_1" sampledSeconds="600.00" nVehEntered="0" nVehLeft="0" nVehSeen="6" meanSpeed="0.00" meanTimeLoss="100.00" meanOccupancy="68.86" maxOccupancy="68.86" meanMaxJamLengthInVehicles="6.00" meanMaxJamLengthInMeters="39.58" maxJamLengthInVehicles="6" maxJamLengthInMeters="39.58" jamLengthInVehiclesSum="600" jamLengthInMetersSum="3957.51" meanHaltingDuration="919.83" maxHaltingDuration="1181.00" haltingDurationSum="5519.00" meanIntervalHaltingDuration="100.00" maxIntervalHaltingDuration="100.00" intervalHaltingDurationSum="600.00" startedHalts="0.00" meanVehicleNumber="6.00" maxVehicleNumber="6" />
   <interval begin="23200.00" end="23300.00" id="e2_L197#2_4_1" sampledSeconds="600.00" nVehEntered="0" nVehLeft="0" nVehSeen="6" meanSpeed="0.00" meanTimeLoss="100.00" meanOccupancy="68.86" maxOccupancy="68.86" meanMaxJamLengthInVehicles="6.00" meanMaxJamLengthInMeters="39.58" maxJamLengthInVehicles="6" maxJamLengthInMeters="39.58" jamLengthInVehiclesSum="600" jamLengthInMetersSum="3957.51" meanHaltingDuration="1019.83" maxHaltingDuration="1281.00" haltingDurationSum="6119.00" meanIntervalHaltingDuration="100.00" maxIntervalHaltingDuration="100.00" intervalHaltingDurationSum="600.00" startedHalts="0.00" meanVehicleNumber="6.00" maxVehicleNumber="6" />
   <interval begin="23300.00" end="23400.00" id="e2_L197#2_4_1" sampledSeconds="600.00" nVehEntered="0" nVehLeft="0" nVehSeen="6" meanSpeed="0.00" meanTimeLoss="100.00" meanOccupancy="68.86" maxOccupancy="68.86" meanMaxJamLengthInVehicles="6.00" meanMaxJamLengthInMeters="39.58" maxJamLengthInVehicles="6" maxJamLengthInMeters="39.58" jamLengthInVehiclesSum="600" jamLengthInMetersSum="3957.51" meanHaltingDuration="1119.83" maxHaltingDuration="1381.00" haltingDurationSum="6719.00" meanIntervalHaltingDuration="100.00" maxIntervalHaltingDuration="100.00" intervalHaltingDurationSum="600.00" startedHalts="0.00" meanVehicleNumber="6.00" maxVehicleNumber="6" />
   <interval begin="23400.00" end="23500.00" id="e2_L197#2_4_1" sampledSeconds="592.37" nVehEntered="1" nVehLeft="1" nVehSeen="7" meanSpeed="0.07" meanTimeLoss="84.13" meanOccupancy="67.55" maxOccupancy="68.87" meanMaxJamLengthInVehicles="5.81" meanMaxJamLengthInMeters="38.52" maxJamLengthInVehicles="6" maxJamLengthInMeters="41.89" jamLengthInVehiclesSum="583" jamLengthInMetersSum="3860.84" meanHaltingDuration="664.27" maxHaltingDuration="1424.00" haltingDurationSum="7307.00" meanIntervalHaltingDuration="53.45" maxIntervalHaltingDuration="100.00" intervalHaltingDurationSum="588.00" startedHalts="5.00" meanVehicleNumber="5.93" maxVehicleNumber="6" />
   <interval begin="23500.00" end="23600.00" id="e2_L197#2_4_1" sampledSeconds="600.00" nVehEntered="0" nVehLeft="0" nVehSeen="6" meanSpeed="0.00" meanTimeLoss="100.00" meanOccupancy="68.87" maxOccupancy="68.87" meanMaxJamLengthInVehicles="6.00" meanMaxJamLengthInMeters="39.58" maxJamLengthInVehicles="6" maxJamLengthInMeters="39.58" jamLengthInVehiclesSum="600" jamLengthInMetersSum="3957.51" meanHaltingDuration="523.83" maxHaltingDuration="1266.00" haltingDurationSum="3143.00" meanIntervalHaltingDuration="100.00" maxIntervalHaltingDuration="100.00" intervalHaltingDurationSum="600.00" startedHalts="0.00" meanVehicleNumber="6.00" maxVehicleNumber="6" />
   <interval begin="23600.00" end="23700.00" id="e2_L197#2_4_1" sampledSeconds="600.00" nVehEntered="0" nVehLeft="0" nVehSeen="6" meanSpeed="0.00" meanTimeLoss="100.00" meanOccupancy="68.87" maxOccupancy="68.87" meanMaxJamLengthInVehicles="6.00" meanMaxJamLengthInMeters="39.58" maxJamLengthInVehicles="6" maxJamLengthInMeters="39.58" jamLengthInVehiclesSum="600" jamLengthInMetersSum="3957.51" meanHaltingDuration="623.83" maxHaltingDuration="1366.00" haltingDurationSum="3743.00" meanIntervalHaltingDuration="100.00" maxIntervalHaltingDuration="100.00" intervalHaltingDurationSum="600.00" startedHalts="0.00" meanVehicleNumber="6.00" maxVehicleNumber="6" />
   <interval begin="23700.00" end="23800.00" id="e2_L197#2_4_1" sampledSeconds="600.00" nVehEntered="0" nVehLeft="0" nVehSeen="6" meanSpeed="0.00" meanTimeLoss="100.00" meanOccupancy="68.87" maxOccupancy="68.87" meanMaxJamLengthInVehicles="6.00" meanMaxJamLengthInMeters="39.58" maxJamLengthInVehicles="6" maxJamLengthInMeters="39.58" jamLengthInVehiclesSum="600" jamLengthInMetersSum="3957.51" meanHaltingDuration="723.83" maxHaltingDuration="1466.00" haltingDurationSum="4343.00" meanIntervalHaltingDuration="100.00" maxIntervalHaltingDuration="100.00" intervalHaltingDurationSum="600.00" startedHalts="0.00" meanVehicleNumber="6.00" maxVehicleNumber="6" />
   <interval begin="23800.00" end="23900.00" id="e2_L197#2_4_1" sampledSeconds="592.04" nVehEntered="1" nVehLeft="1" nVehSeen="7" meanSpeed="0.08" meanTimeLoss="84.02" meanOccupancy="66.22" maxOccupancy="68.87" meanMaxJamLengthInVehicles="5.68" meanMaxJamLengthInMeters="37.51" maxJamLengthInVehicles="6" maxJamLengthInMeters="40.90" jamLengthInVehiclesSum="571" jamLengthInMetersSum="3760.22" meanHaltingDuration="307.75" maxHaltingDuration="1502.00" haltingDurationSum="4924.00" meanIntervalHaltingDuration="36.31" maxIntervalHaltingDuration="65.00" intervalHaltingDurationSum="581.00" startedHalts="10.00" meanVehicleNumber="5.93" maxVehicleNumber="6" />
   <interval begin="23900.00" end="24000.00" id="e2_L197#2_4_1" sampledSeconds="583.61" nVehEntered="2" nVehLeft="2" nVehSeen="8" meanSpeed="0.14" meanTimeLoss="72.14" meanOccupancy="64.89" maxOccupancy="68.87" meanMaxJamLengthInVehicles="5.59" meanMaxJamLengthInMeters="36.97" maxJamLengthInVehicles="6" maxJamLengthInMeters="40.27" jamLengthInVehiclesSum="560" jamLengthInMetersSum="3701.35" meanHaltingDuration="71.92" maxHaltingDuration="138.00" haltingDurationSum="935.00" meanIntervalHaltingDuration="43.62" maxIntervalHaltingDuration="79.00" intervalHaltingDurationSum="567.00" startedHalts="7.00" meanVehicleNumber="5.86" maxVehicleNumber="6" />
   <interval begin="24000.00" end="24100.00" id="e2_L197#2_4_1" sampledSeconds="600.00" nVehEntered="0" nVehLeft="0" nVehSeen="6" meanSpeed="0.00" meanTimeLoss="100.00" meanOccupancy="68.87" maxOccupancy="68.87" meanMaxJamLengthInVehicles="6.00" meanMaxJamLengthInMeters="39.58" maxJamLengthInVehicles="6" maxJamLengthInMeters="39.58" jamLengthInVehiclesSum="600" jamLengthInMetersSum="3957.52" meanHaltingDuration="119.17" maxHaltingDuration="123.00" haltingDurationSum="715.00" meanIntervalHaltingDuration="100.00" maxIntervalHaltingDuration="100.00" intervalHaltingDurationSum="600.00" startedHalts="0.00" meanVehicleNumber="6.00" maxVehicleNumber="6" />
   <interval begin="24100.00" end="24200.00" id="e2_L197#2_4_1" sampledSeconds="592.78" nVehEntered="1" nVehLeft="1" nVehSeen="7" meanSpeed="0.07" meanTimeLoss="84.19" meanOccupancy="67.60" maxOccupancy="68.87" meanMaxJamLengthInVehicles="5.75" meanMaxJamLengthInMeters="38.03" maxJamLengthInVehicles="6" maxJamLengthInMeters="41.12" jamLengthInVehiclesSum="579" jamLengthInMetersSum="3819.56" meanHaltingDuration="108.33" maxHaltingDuration="222.00" haltingDurationSum="1300.00" meanIntervalHaltingDuration="48.75" maxIntervalHaltingDuration="100.00" intervalHaltingDurationSum="585.00" startedHalts="6.00" meanVehicleNumber="5.94" maxVehicleNumber="6" />
   <interval begin="24200.00" end="24300.00" id="e2_L197#2_4_1" sampledSeconds="600.00" nVehEntered="0" nVehLeft="0" nVehSeen="6" meanSpeed="0.00" meanTimeLoss="100.00" meanOccupancy="68.87" maxOccupancy="68.87" meanMaxJamLengthInVehicles="6.00" meanMaxJamLengthInMeters="39.58" maxJamLengthInVehicles="6" maxJamLengthInMeters="39.58" jamLengthInVehiclesSum="600" jamLengthInMetersSum="3957.52" meanHaltingDuration="195.83" maxHaltingDuration="322.00" haltingDurationSum="1175.00" meanIntervalHaltingDuration="100.00" maxIntervalHaltingDuration="100.00" intervalHaltingDurationSum="600.00" startedHalts="0.00" meanVehicleNumber="6.00" maxVehicleNumber="6" />
   <interval begin="24300.00" end="24400.00" id="e2_L197#2_4_1" sampledSeconds="600.00" nVehEntered="0" nVehLeft="0" nVehSeen="6" meanSpeed="0.00" meanTimeLoss="100.00" meanOccupancy="68.87" maxOccupancy="68.87" meanMaxJamLengthInVehicles="6.00" meanMaxJamLengthInMeters="39.58" maxJamLengthInVehicles="6" maxJamLengthInMeters="39.58" jamLengthInVehiclesSum="600" jamLengthInMetersSum="3957.52" meanHaltingDuration="295.83" maxHaltingDuration="422.00" haltingDurationSum="1775.00" meanIntervalHaltingDuration="100.00" maxIntervalHaltingDuration="100.00" intervalHaltingDurationSum="600.00" startedHalts="0.00" meanVehicleNumber="6.00" maxVehicleNumber="6" />
   <interval begin="24400.00" end="24500.00" id="e2_L197#2_4_1" sampledSeconds="600.00" nVehEntered="0" nVehLeft="0" nVehSeen="6" meanSpeed="0.00" meanTimeLoss="100.00" meanOccupancy="68.87" maxOccupancy="68.87" meanMaxJamLengthInVehicles="6.00" meanMaxJamLengthInMeters="39.58" maxJamLengthInVehicles="6" maxJamLengthInMeters="39.58" jamLengthInVehiclesSum="600" jamLengthInMetersSum="3957.52" meanHaltingDuration="395.83" maxHaltingDuration="522.00" haltingDurationSum="2375.00" meanIntervalHaltingDuration="100.00" maxIntervalHaltingDuration="100.00" intervalHaltingDurationSum="600.00" startedHalts="0.00" meanVehicleNumber="6.00" maxVehicleNumber="6" />
   <interval begin="24500.00" end="24600.00" id="e2_L197#2_4_1" sampledSeconds="600.00" nVehEntered="0" nVehLeft="0" nVehSeen="6" meanSpeed="0.00" meanTimeLoss="100.00" meanOccupancy="68.87" maxOccupancy="68.87" meanMaxJamLengthInVehicles="6.00" meanMaxJamLengthInMeters="39.58" maxJamLengthInVehicles="6" maxJamLengthInMeters="39.58" jamLengthInVehiclesSum="600" jamLengthInMetersSum="3957.52" meanHaltingDuration="495.83" maxHaltingDuration="622.00" haltingDurationSum="2975.00" meanIntervalHaltingDuration="100.00" maxIntervalHaltingDuration="100.00" intervalHaltingDurationSum="600.00" startedHalts="0.00" meanVehicleNumber="6.00" maxVehicleNumber="6" />
   <interval begin="24600.00" end="24700.00" id="e2_L197#2_4_1" sampledSeconds="600.00" nVehEntered="0" nVehLeft="0" nVehSeen="6" meanSpeed="0.00" meanTimeLoss="100.00" meanOccupancy="68.87" maxOccupancy="68.87" meanMaxJamLengthInVehicles="6.00" meanMaxJamLengthInMeters="39.58" maxJamLengthInVehicles="6" maxJamLengthInMeters="39.58" jamLengthInVehiclesSum="600" jamLengthInMetersSum="3957.52" meanHaltingDuration="595.83" maxHaltingDuration="722.00" haltingDurationSum="3575.00" meanIntervalHaltingDuration="100.00" maxIntervalHaltingDuration="100.00" intervalHaltingDurationSum="600.00" startedHalts="0.00" meanVehicleNumber="6.00" maxVehicleNumber="6" />
   <interval begin="24700.00" end="24800.00" id="e2_L197#2_4_1" sampledSeconds="600.00" nVehEntered="0" nVehLeft="0" nVehSeen="6" meanSpeed="0.01" meanTimeLoss="99.93" meanOccupancy="67.98" maxOccupancy="68.87" meanMaxJamLengthInVehicles="6.00" meanMaxJamLengthInMeters="39.64" maxJamLengthInVehicles="6" maxJamLengthInMeters="40.35" jamLengthInVehiclesSum="600" jamLengthInMetersSum="3964.25" meanHaltingDuration="695.83" maxHaltingDuration="822.00" haltingDurationSum="4175.00" meanIntervalHaltingDuration="100.00" maxIntervalHaltingDuration="100.00" intervalHaltingDurationSum="600.00" startedHalts="0.00" meanVehicleNumber="6.00" maxVehicleNumber="6" />
   <interval begin="24800.00" end="24900.00" id="e2_L197#2_4_1" sampledSeconds="600.00" nVehEntered="0" nVehLeft="0" nVehSeen="6" meanSpeed="0.00" meanTimeLoss="100.00" meanOccupancy="66.54" maxOccupancy="66.54" meanMaxJamLengthInVehicles="6.00" meanMaxJamLengthInMeters="39.58" maxJamLengthInVehicles="6" maxJamLengthInMeters="39.58" jamLengthInVehiclesSum="600" jamLengthInMetersSum="3957.51" meanHaltingDuration="795.83" maxHaltingDuration="922.00" haltingDurationSum="4775.00" meanIntervalHaltingDuration="100.00" maxIntervalHaltingDuration="100.00" intervalHaltingDurationSum="600.00" startedHalts="0.00" meanVehicleNumber="6.00" maxVehicleNumber="6" />
   <interval begin="24900.00" end="25000.00" id="e2_L197#2_4_1" sampledSeconds="600.00" nVehEntered="0" nVehLeft="0" nVehSeen="6" meanSpeed="0.00" meanTimeLoss="100.00" meanOccupancy="66.54" maxOccupancy="66.54" meanMaxJamLengthInVehicles="6.00" meanMaxJamLengthInMeters="39.58" maxJamLengthInVehicles="6" maxJamLengthInMeters="39.58" jamLengthInVehiclesSum="600" jamLengthInMetersSum="3957.51" meanHaltingDuration="895.83" maxHaltingDuration="1022.00" haltingDurationSum="5375.00" meanIntervalHaltingDuration="100.00" maxIntervalHaltingDuration="100.00" intervalHaltingDurationSum="600.00" startedHalts="0.00" meanVehicleNumber="6.00" maxVehicleNumber="6" />
   <interval begin="25000.00" end="25100.00" id="e2_L197#2_4_1" sampledSeconds="600.00" nVehEntered="0" nVehLeft="0" nVehSeen="6" meanSpeed="0.00" meanTimeLoss="100.00" meanOccupancy="66.54" maxOccupancy="66.54" meanMaxJamLengthInVehicles="6.00" meanMaxJamLengthInMeters="39.58" maxJamLengthInVehicles="6" maxJamLengthInMeters="39.58" jamLengthInVehiclesSum="600" jamLengthInMetersSum="3957.51" meanHaltingDuration="995.83" maxHaltingDuration="1122.00" haltingDurationSum="5975.00" meanIntervalHaltingDuration="100.00" maxIntervalHaltingDuration="100.00" intervalHaltingDurationSum="600.00" startedHalts="0.00" meanVehicleNumber="6.00" maxVehicleNumber="6" />
   <interval begin="25100.00" end="25200.00" id="e2_L197#2_4_1" sampledSeconds="600.00" nVehEntered="0" nVehLeft="0" nVehSeen="6" meanSpeed="0.00" meanTimeLoss="100.00" meanOccupancy="66.54" maxOccupancy="66.54" meanMaxJamLengthInVehicles="6.00" meanMaxJamLengthInMeters="39.58" maxJamLengthInVehicles="6" maxJamLengthInMeters="39.58" jamLengthInVehiclesSum="600" jamLengthInMetersSum="3957.51" meanHaltingDuration="1095.83" maxHaltingDuration="1222.00" haltingDurationSum="6575.00" meanIntervalHaltingDuration="100.00" maxIntervalHaltingDuration="100.00" intervalHaltingDurationSum="600.00" startedHalts="0.00" meanVehicleNumber="6.00" maxVehicleNumber="6" />
   <interval begin="25200.00" end="25300.00" id="e2_L197#2_4_1" sampledSeconds="600.00" nVehEntered="0" nVehLeft="0" nVehSeen="6" meanSpeed="0.00" meanTimeLoss="100.00" meanOccupancy="66.54" maxOccupancy="66.54" meanMaxJamLengthInVehicles="6.00" meanMaxJamLengthInMeters="39.58" maxJamLengthInVehicles="6" maxJamLengthInMeters="39.58" jamLengthInVehiclesSum="600" jamLengthInMetersSum="3957.51" meanHaltingDuration="1195.83" maxHaltingDuration="1322.00" haltingDurationSum="7175.00" meanIntervalHaltingDuration="100.00" maxIntervalHaltingDuration="100.00" intervalHaltingDurationSum="600.00" startedHalts="0.00" meanVehicleNumber="6.00" maxVehicleNumber="6" />
   <interval begin="25300.00" end="25400.00" id="e2_L197#2_4_1" sampledSeconds="600.00" nVehEntered="0" nVehLeft="0" nVehSeen="6" meanSpeed="0.00" meanTimeLoss="100.00" meanOccupancy="66.54" maxOccupancy="66.54" meanMaxJamLengthInVehicles="6.00" meanMaxJamLengthInMeters="39.58" maxJamLengthInVehicles="6" maxJamLengthInMeters="39.58" jamLengthInVehiclesSum="600" jamLengthInMetersSum="3957.51" meanHaltingDuration="1295.83" maxHaltingDuration="1422.00" haltingDurationSum="7775.00" meanIntervalHaltingDuration="100.00" maxIntervalHaltingDuration="100.00" intervalHaltingDurationSum="600.00" startedHalts="0.00" meanVehicleNumber="6.00" maxVehicleNumber="6" />
   <interval begin="25400.00" end="25500.00" id="e2_L197#2_4_1" sampledSeconds="556.45" nVehEntered="5" nVehLeft="6" nVehSeen="11" meanSpeed="0.42" meanTimeLoss="48.87" meanOccupancy="61.37" maxOccupancy="68.63" meanMaxJamLengthInVehicles="4.60" meanMaxJamLengthInMeters="30.62" maxJamLengthInVehicles="6" maxJamLengthInMeters="41.60" jamLengthInVehiclesSum="466" jamLengthInMetersSum="3085.86" meanHaltingDuration="295.11" maxHaltingDuration="1454.00" haltingDurationSum="8263.00" meanIntervalHaltingDuration="17.43" maxIntervalHaltingDuration="83.00" intervalHaltingDurationSum="488.00" startedHalts="23.00" meanVehicleNumber="5.63" maxVehicleNumber="6" />
   <interval begin="25500.00" end="25600.00" id="e2_L197#2_4_1" sampledSeconds="564.90" nVehEntered="5" nVehLeft="5" nVehSeen="10" meanSpeed="0.35" meanTimeLoss="54.93" meanOccupancy="63.29" maxOccupancy="68.87" meanMaxJamLengthInVehicles="4.72" meanMaxJamLengthInMeters="31.18" maxJamLengthInVehicles="6" maxJamLengthInMeters="41.15" jamLengthInVehiclesSum="478" jamLengthInMetersSum="3139.05" meanHaltingDuration="16.97" maxHaltingDuration="56.00" haltingDurationSum="509.00" meanIntervalHaltingDuration="16.87" maxIntervalHaltingDuration="56.00" intervalHaltingDurationSum="506.00" startedHalts="28.00" meanVehicleNumber="5.70" maxVehicleNumber="6" />
   <interval begin="25600.00" end="25700.00" id="e2_L197#2_4_1" sampledSeconds="499.27" nVehEntered="12" nVehLeft="11" nVehSeen="17" meanSpeed="1.04" meanTimeLoss="26.92" meanOccupancy="55.59" maxOccupancy="68.87" meanMaxJamLengthInVehicles="3.06" meanMaxJamLengthInMeters="19.80" maxJamLengthInVehicles="6" maxJamLengthInMeters="39.78" jamLengthInVehiclesSum="306" jamLengthInMetersSum="1980.08" meanHaltingDuration="11.93" maxHaltingDuration="54.00" haltingDurationSum="334.00" meanIntervalHaltingDuration="11.86" maxIntervalHaltingDuration="54.00" intervalHaltingDurationSum="332.00" startedHalts="26.00" meanVehicleNumber="5.12" maxVehicleNumber="6" />
   <interval begin="25700.00" end="25800.00" id="e2_L197#2_4_1" sampledSeconds="600.00" nVehEntered="0" nVehLeft="0" nVehSeen="6" meanSpeed="0.00" meanTimeLoss="100.00" meanOccupancy="68.86" maxOccupancy="68.86" meanMaxJamLengthInVehicles="6.00" meanMaxJamLengthInMeters="39.58" maxJamLengthInVehicles="6" maxJamLengthInMeters="39.58" jamLengthInVehiclesSum="600" jamLengthInMetersSum="3957.51" meanHaltingDuration="149.33" maxHaltingDuration="154.00" haltingDurationSum="896.00" meanIntervalHaltingDuration="100.00" maxIntervalHaltingDuration="100.00" intervalHaltingDurationSum="600.00" startedHalts="0.00" meanVehicleNumber="6.00" maxVehicleNumber="6" />
   <interval begin="25800.00" end="25900.00" id="e2_L197#2_4_1" sampledSeconds="592.15" nVehEntered="1" nVehLeft="1" nVehSeen="7" meanSpeed="0.07" meanTimeLoss="84.10" meanOccupancy="67.61" maxOccupancy="68.87" meanMaxJamLengthInVehicles="5.70" meanMaxJamLengthInMeters="37.67" maxJamLengthInVehicles="6" maxJamLengthInMeters="40.96" jamLengthInVehiclesSum="577" jamLengthInMetersSum="3801.27" meanHaltingDuration="113.85" maxHaltingDuration="245.00" haltingDurationSum="1480.00" meanIntervalHaltingDuration="44.92" maxIntervalHaltingDuration="100.00" intervalHaltingDurationSum="584.00" startedHalts="8.00" meanVehicleNumber="5.93" maxVehicleNumber="6" />