<?xml version="1.0" encoding="UTF-8"?>

<!-- generated on Sun Feb 17 15:57:00 2019 by 
<configuration xmlns:xsi="http://www.w3.org/2001/XMLSchema-instance" xsi:noNamespaceSchemaLocation="http://sumo.dlr.de/xsd/Configuration.xsd">

    <input>
        <net-file value="/home/sda/Documents/sumo-sathorn-ray/models/sathorn-morning/sathorn_w_fixed_20160404.net.xml"/>
        <route-files value="/home/sda/Documents/sumo-sathorn-ray/models/sathorn-morning/Great-route/sathorn_w_20160422edit2.rou.xml"/>
        <additional-files value="/home/sda/Documents/sumo-sathorn-ray/models/sathorn-morning/sathon_wide_tls_20160418_edited.add.xml,/home/sda/Documents/sumo-sathorn-ray/detectors/sathorn_w_detectors.add.xml"/>
    </input>

    <time>
        <begin value="21600"/>
        <end value="32400"/>
        <step-length value="1"/>
    </time>

    <processing>
        <no-internal-links value="true"/>
        <ignore-junction-blocker value="-1"/>
        <time-to-teleport value="-1"/>
        <eager-insert value="true"/>
        <time-to-impatience value="300"/>
    </processing>

    <report>
        <no-warnings value="true"/>
    </report>

    <random_number>
        <random value="false"/>
        <seed value="20"/>
    </random_number>

    <gui_only>
        <gui-settings-file value="/home/sda/Documents/sumo-sathorn-ray/gui-settings/gui-settings-file-surasak.xml"/>
        <quit-on-end value="true"/>
        <start value="true"/>
        <tracker-interval value="1"/>
    </gui_only>

</configuration>
-->

<detector xmlns:xsi="http://www.w3.org/2001/XMLSchema-instance" xsi:noNamespaceSchemaLocation="http://sumo.dlr.de/xsd/det_e2_file.xsd">
   <interval begin="21600.00" end="21700.00" id="e2_L570_0_3" sampledSeconds="0.00" nVehEntered="0" nVehLeft="0" nVehSeen="0" meanSpeed="-1.00" meanTimeLoss="-1.00" meanOccupancy="0.00" maxOccupancy="0.00" meanMaxJamLengthInVehicles="0.00" meanMaxJamLengthInMeters="0.00" maxJamLengthInVehicles="0" maxJamLengthInMeters="0.00" jamLengthInVehiclesSum="0" jamLengthInMetersSum="0.00" meanHaltingDuration="0.00" maxHaltingDuration="0.00" haltingDurationSum="0.00" meanIntervalHaltingDuration="0.00" maxIntervalHaltingDuration="0.00" intervalHaltingDurationSum="0.00" startedHalts="0.00" meanVehicleNumber="0.00" maxVehicleNumber="0" />
   <interval begin="21700.00" end="21800.00" id="e2_L570_0_3" sampledSeconds="0.00" nVehEntered="0" nVehLeft="0" nVehSeen="0" meanSpeed="-1.00" meanTimeLoss="-1.00" meanOccupancy="0.00" maxOccupancy="0.00" meanMaxJamLengthInVehicles="0.00" meanMaxJamLengthInMeters="0.00" maxJamLengthInVehicles="0" maxJamLengthInMeters="0.00" jamLengthInVehiclesSum="0" jamLengthInMetersSum="0.00" meanHaltingDuration="0.00" maxHaltingDuration="0.00" haltingDurationSum="0.00" meanIntervalHaltingDuration="0.00" maxIntervalHaltingDuration="0.00" intervalHaltingDurationSum="0.00" startedHalts="0.00" meanVehicleNumber="0.00" maxVehicleNumber="0" />
   <interval begin="21800.00" end="21900.00" id="e2_L570_0_3" sampledSeconds="141.01" nVehEntered="19" nVehLeft="16" nVehSeen="19" meanSpeed="11.81" meanTimeLoss="0.41" meanOccupancy="4.10" maxOccupancy="9.30" meanMaxJamLengthInVehicles="0.00" meanMaxJamLengthInMeters="0.00" maxJamLengthInVehicles="0" maxJamLengthInMeters="0.00" jamLengthInVehiclesSum="0" jamLengthInMetersSum="0.00" meanHaltingDuration="0.00" maxHaltingDuration="0.00" haltingDurationSum="0.00" meanIntervalHaltingDuration="0.00" maxIntervalHaltingDuration="0.00" intervalHaltingDurationSum="0.00" startedHalts="0.00" meanVehicleNumber="1.53" maxVehicleNumber="3" />
   <interval begin="21900.00" end="22000.00" id="e2_L570_0_3" sampledSeconds="237.25" nVehEntered="21" nVehLeft="22" nVehSeen="24" meanSpeed="11.76" meanTimeLoss="0.58" meanOccupancy="6.98" maxOccupancy="15.32" meanMaxJamLengthInVehicles="0.00" meanMaxJamLengthInMeters="0.00" maxJamLengthInVehicles="0" maxJamLengthInMeters="0.00" jamLengthInVehiclesSum="0" jamLengthInMetersSum="0.00" meanHaltingDuration="0.00" maxHaltingDuration="0.00" haltingDurationSum="0.00" meanIntervalHaltingDuration="0.00" maxIntervalHaltingDuration="0.00" intervalHaltingDurationSum="0.00" startedHalts="0.00" meanVehicleNumber="2.51" maxVehicleNumber="5" />
   <interval begin="22000.00" end="22100.00" id="e2_L570_0_3" sampledSeconds="215.99" nVehEntered="20" nVehLeft="20" nVehSeen="22" meanSpeed="11.77" meanTimeLoss="0.57" meanOccupancy="6.33" maxOccupancy="12.40" meanMaxJamLengthInVehicles="0.00" meanMaxJamLengthInMeters="0.00" maxJamLengthInVehicles="0" maxJamLengthInMeters="0.00" jamLengthInVehiclesSum="0" jamLengthInMetersSum="0.00" meanHaltingDuration="0.00" maxHaltingDuration="0.00" haltingDurationSum="0.00" meanIntervalHaltingDuration="0.00" maxIntervalHaltingDuration="0.00" intervalHaltingDurationSum="0.00" startedHalts="0.00" meanVehicleNumber="2.32" maxVehicleNumber="4" />
   <interval begin="22100.00" end="22200.00" id="e2_L570_0_3" sampledSeconds="189.31" nVehEntered="19" nVehLeft="21" nVehSeen="21" meanSpeed="11.76" meanTimeLoss="0.53" meanOccupancy="5.59" maxOccupancy="9.30" meanMaxJamLengthInVehicles="0.00" meanMaxJamLengthInMeters="0.00" maxJamLengthInVehicles="0" maxJamLengthInMeters="0.00" jamLengthInVehiclesSum="0" jamLengthInMetersSum="0.00" meanHaltingDuration="0.00" maxHaltingDuration="0.00" haltingDurationSum="0.00" meanIntervalHaltingDuration="0.00" maxIntervalHaltingDuration="0.00" intervalHaltingDurationSum="0.00" startedHalts="0.00" meanVehicleNumber="2.00" maxVehicleNumber="3" />
   <interval begin="22200.00" end="22300.00" id="e2_L570_0_3" sampledSeconds="125.68" nVehEntered="12" nVehLeft="11" nVehSeen="12" meanSpeed="11.80" meanTimeLoss="0.58" meanOccupancy="3.85" maxOccupancy="9.30" meanMaxJamLengthInVehicles="0.00" meanMaxJamLengthInMeters="0.00" maxJamLengthInVehicles="0" maxJamLengthInMeters="0.00" jamLengthInVehiclesSum="0" jamLengthInMetersSum="0.00" meanHaltingDuration="0.00" maxHaltingDuration="0.00" haltingDurationSum="0.00" meanIntervalHaltingDuration="0.00" maxIntervalHaltingDuration="0.00" intervalHaltingDurationSum="0.00" startedHalts="0.00" meanVehicleNumber="1.34" maxVehicleNumber="3" />
   <interval begin="22300.00" end="22400.00" id="e2_L570_0_3" sampledSeconds="156.85" nVehEntered="19" nVehLeft="19" nVehSeen="20" meanSpeed="11.79" meanTimeLoss="0.44" meanOccupancy="4.73" maxOccupancy="9.30" meanMaxJamLengthInVehicles="0.00" meanMaxJamLengthInMeters="0.00" maxJamLengthInVehicles="0" maxJamLengthInMeters="0.00" jamLengthInVehiclesSum="0" jamLengthInMetersSum="0.00" meanHaltingDuration="0.00" maxHaltingDuration="0.00" haltingDurationSum="0.00" meanIntervalHaltingDuration="0.00" maxIntervalHaltingDuration="0.00" intervalHaltingDurationSum="0.00" startedHalts="0.00" meanVehicleNumber="1.65" maxVehicleNumber="4" />
   <interval begin="22400.00" end="22500.00" id="e2_L570_0_3" sampledSeconds="116.48" nVehEntered="11" nVehLeft="11" nVehSeen="12" meanSpeed="11.79" meanTimeLoss="0.55" meanOccupancy="3.54" maxOccupancy="9.30" meanMaxJamLengthInVehicles="0.00" meanMaxJamLengthInMeters="0.00" maxJamLengthInVehicles="0" maxJamLengthInMeters="0.00" jamLengthInVehiclesSum="0" jamLengthInMetersSum="0.00" meanHaltingDuration="0.00" maxHaltingDuration="0.00" haltingDurationSum="0.00" meanIntervalHaltingDuration="0.00" maxIntervalHaltingDuration="0.00" intervalHaltingDurationSum="0.00" startedHalts="0.00" meanVehicleNumber="1.24" maxVehicleNumber="3" />
   <interval begin="22500.00" end="22600.00" id="e2_L570_0_3" sampledSeconds="107.39" nVehEntered="8" nVehLeft="8" nVehSeen="9" meanSpeed="11.83" meanTimeLoss="0.64" meanOccupancy="3.22" maxOccupancy="6.20" meanMaxJamLengthInVehicles="0.00" meanMaxJamLengthInMeters="0.00" maxJamLengthInVehicles="0" maxJamLengthInMeters="0.00" jamLengthInVehiclesSum="0" jamLengthInMetersSum="0.00" meanHaltingDuration="0.00" maxHaltingDuration="0.00" haltingDurationSum="0.00" meanIntervalHaltingDuration="0.00" maxIntervalHaltingDuration="0.00" intervalHaltingDurationSum="0.00" startedHalts="0.00" meanVehicleNumber="1.15" maxVehicleNumber="2" />
   <interval begin="22600.00" end="22700.00" id="e2_L570_0_3" sampledSeconds="148.57" nVehEntered="15" nVehLeft="14" nVehSeen="16" meanSpeed="11.68" meanTimeLoss="0.61" meanOccupancy="4.46" maxOccupancy="9.30" meanMaxJamLengthInVehicles="0.00" meanMaxJamLengthInMeters="0.00" maxJamLengthInVehicles="0" maxJamLengthInMeters="0.00" jamLengthInVehiclesSum="0" jamLengthInMetersSum="0.00" meanHaltingDuration="0.00" maxHaltingDuration="0.00" haltingDurationSum="0.00" meanIntervalHaltingDuration="0.00" maxIntervalHaltingDuration="0.00" intervalHaltingDurationSum="0.00" startedHalts="0.00" meanVehicleNumber="1.59" maxVehicleNumber="4" />
   <interval begin="22700.00" end="22800.00" id="e2_L570_0_3" sampledSeconds="533.76" nVehEntered="51" nVehLeft="50" nVehSeen="53" meanSpeed="11.75" meanTimeLoss="0.59" meanOccupancy="15.96" maxOccupancy="27.91" meanMaxJamLengthInVehicles="0.00" meanMaxJamLengthInMeters="0.00" maxJamLengthInVehicles="0" maxJamLengthInMeters="0.00" jamLengthInVehiclesSum="0" jamLengthInMetersSum="0.00" meanHaltingDuration="0.00" maxHaltingDuration="0.00" haltingDurationSum="0.00" meanIntervalHaltingDuration="0.00" maxIntervalHaltingDuration="0.00" intervalHaltingDurationSum="0.00" startedHalts="0.00" meanVehicleNumber="5.70" maxVehicleNumber="10" />
   <interval begin="22800.00" end="22900.00" id="e2_L570_0_3" sampledSeconds="587.81" nVehEntered="68" nVehLeft="63" nVehSeen="71" meanSpeed="10.25" meanTimeLoss="1.48" meanOccupancy="17.54" maxOccupancy="34.11" meanMaxJamLengthInVehicles="0.00" meanMaxJamLengthInMeters="0.00" maxJamLengthInVehicles="0" maxJamLengthInMeters="0.00" jamLengthInVehiclesSum="0" jamLengthInMetersSum="0.00" meanHaltingDuration="0.00" maxHaltingDuration="0.00" haltingDurationSum="0.00" meanIntervalHaltingDuration="0.00" maxIntervalHaltingDuration="0.00" intervalHaltingDurationSum="0.00" startedHalts="0.00" meanVehicleNumber="6.21" maxVehicleNumber="11" />
   <interval begin="22900.00" end="23000.00" id="e2_L570_0_3" sampledSeconds="1621.51" nVehEntered="50" nVehLeft="39" nVehSeen="58" meanSpeed="2.18" meanTimeLoss="23.08" meanOccupancy="48.48" maxOccupancy="70.44" meanMaxJamLengthInVehicles="9.17" meanMaxJamLengthInMeters="64.43" maxJamLengthInVehicles="21" maxJamLengthInMeters="150.82" jamLengthInVehiclesSum="1066" jamLengthInMetersSum="7163.44" meanHaltingDuration="16.45" maxHaltingDuration="60.00" haltingDurationSum="1053.00" meanIntervalHaltingDuration="16.45" maxIntervalHaltingDuration="60.00" intervalHaltingDurationSum="1053.00" startedHalts="70.00" meanVehicleNumber="16.45" maxVehicleNumber="24" />
   <interval begin="23000.00" end="23100.00" id="e2_L570_0_3" sampledSeconds="1500.21" nVehEntered="44" nVehLeft="51" nVehSeen="63" meanSpeed="2.66" meanTimeLoss="18.74" meanOccupancy="44.89" maxOccupancy="64.15" meanMaxJamLengthInVehicles="6.88" meanMaxJamLengthInMeters="44.37" maxJamLengthInVehicles="20" maxJamLengthInMeters="145.75" jamLengthInVehiclesSum="823" jamLengthInMetersSum="5046.18" meanHaltingDuration="24.72" maxHaltingDuration="104.00" haltingDurationSum="1434.00" meanIntervalHaltingDuration="14.48" maxIntervalHaltingDuration="100.00" intervalHaltingDurationSum="840.00" startedHalts="44.00" meanVehicleNumber="15.28" maxVehicleNumber="22" />
   <interval begin="23100.00" end="23200.00" id="e2_L570_0_3" sampledSeconds="1565.09" nVehEntered="63" nVehLeft="60" nVehSeen="75" meanSpeed="3.43" meanTimeLoss="15.12" meanOccupancy="46.96" maxOccupancy="62.02" meanMaxJamLengthInVehicles="4.03" meanMaxJamLengthInMeters="24.70" maxJamLengthInVehicles="10" maxJamLengthInMeters="109.57" jamLengthInVehiclesSum="770" jamLengthInMetersSum="3692.86" meanHaltingDuration="14.18" maxHaltingDuration="204.00" haltingDurationSum="1021.00" meanIntervalHaltingDuration="11.53" maxIntervalHaltingDuration="100.00" intervalHaltingDurationSum="830.00" startedHalts="78.00" meanVehicleNumber="15.94" maxVehicleNumber="21" />
   <interval begin="23200.00" end="23300.00" id="e2_L570_0_3" sampledSeconds="1529.13" nVehEntered="46" nVehLeft="49" nVehSeen="61" meanSpeed="3.23" meanTimeLoss="18.59" meanOccupancy="46.30" maxOccupancy="55.43" meanMaxJamLengthInVehicles="4.44" meanMaxJamLengthInMeters="35.14" maxJamLengthInVehicles="11" maxJamLengthInMeters="130.54" jamLengthInVehiclesSum="996" jamLengthInMetersSum="5872.78" meanHaltingDuration="65.70" maxHaltingDuration="304.00" haltingDurationSum="1774.00" meanIntervalHaltingDuration="37.41" maxIntervalHaltingDuration="100.00" intervalHaltingDurationSum="1010.00" startedHalts="17.00" meanVehicleNumber="15.55" maxVehicleNumber="20" />
   <interval begin="23300.00" end="23400.00" id="e2_L570_0_3" sampledSeconds="1200.18" nVehEntered="32" nVehLeft="32" nVehSeen="44" meanSpeed="1.96" meanTimeLoss="22.98" meanOccupancy="36.58" maxOccupancy="46.52" meanMaxJamLengthInVehicles="7.31" meanMaxJamLengthInMeters="77.78" maxJamLengthInVehicles="10" maxJamLengthInMeters="130.54" jamLengthInVehiclesSum="1000" jamLengthInMetersSum="8810.14" meanHaltingDuration="267.10" maxHaltingDuration="404.00" haltingDurationSum="2671.00" meanIntervalHaltingDuration="100.00" maxIntervalHaltingDuration="100.00" intervalHaltingDurationSum="1000.00" startedHalts="0.00" meanVehicleNumber="12.14" maxVehicleNumber="15" />
   <interval begin="23400.00" end="23500.00" id="e2_L570_0_3" sampledSeconds="1186.10" nVehEntered="24" nVehLeft="23" nVehSeen="36" meanSpeed="1.87" meanTimeLoss="28.03" meanOccupancy="36.32" maxOccupancy="43.42" meanMaxJamLengthInVehicles="7.10" meanMaxJamLengthInMeters="74.39" maxJamLengthInVehicles="10" maxJamLengthInMeters="133.50" jamLengthInVehiclesSum="1000" jamLengthInMetersSum="8602.71" meanHaltingDuration="367.10" maxHaltingDuration="504.00" haltingDurationSum="3671.00" meanIntervalHaltingDuration="100.00" maxIntervalHaltingDuration="100.00" intervalHaltingDurationSum="1000.00" startedHalts="0.00" meanVehicleNumber="11.97" maxVehicleNumber="14" />
   <interval begin="23500.00" end="23600.00" id="e2_L570_0_3" sampledSeconds="1087.68" nVehEntered="9" nVehLeft="10" nVehSeen="22" meanSpeed="0.95" meanTimeLoss="45.67" meanOccupancy="33.27" maxOccupancy="40.02" meanMaxJamLengthInVehicles="8.32" meanMaxJamLengthInMeters="102.13" maxJamLengthInVehicles="10" maxJamLengthInMeters="134.14" jamLengthInVehiclesSum="1000" jamLengthInMetersSum="11377.01" meanHaltingDuration="467.10" maxHaltingDuration="604.00" haltingDurationSum="4671.00" meanIntervalHaltingDuration="100.00" maxIntervalHaltingDuration="100.00" intervalHaltingDurationSum="1000.00" startedHalts="0.00" meanVehicleNumber="10.93" maxVehicleNumber="13" />
   <interval begin="23600.00" end="23700.00" id="e2_L570_0_3" sampledSeconds="1150.19" nVehEntered="18" nVehLeft="20" nVehSeen="30" meanSpeed="1.55" meanTimeLoss="33.59" meanOccupancy="34.95" maxOccupancy="40.01" meanMaxJamLengthInVehicles="7.45" meanMaxJamLengthInMeters="84.50" maxJamLengthInVehicles="10" maxJamLengthInMeters="134.14" jamLengthInVehiclesSum="1000" jamLengthInMetersSum="9863.38" meanHaltingDuration="567.10" maxHaltingDuration="704.00" haltingDurationSum="5671.00" meanIntervalHaltingDuration="100.00" maxIntervalHaltingDuration="100.00" intervalHaltingDurationSum="1000.00" startedHalts="0.00" meanVehicleNumber="11.59" maxVehicleNumber="13" />
   <interval begin="23700.00" end="23800.00" id="e2_L570_0_3" sampledSeconds="1047.73" nVehEntered="5" nVehLeft="4" nVehSeen="15" meanSpeed="0.54" meanTimeLoss="66.81" meanOccupancy="32.11" maxOccupancy="36.91" meanMaxJamLengthInVehicles="9.05" meanMaxJamLengthInMeters="116.42" maxJamLengthInVehicles="10" maxJamLengthInMeters="134.14" jamLengthInVehiclesSum="1000" jamLengthInMetersSum="12144.58" meanHaltingDuration="667.10" maxHaltingDuration="804.00" haltingDurationSum="6671.00" meanIntervalHaltingDuration="100.00" maxIntervalHaltingDuration="100.00" intervalHaltingDurationSum="1000.00" startedHalts="0.00" meanVehicleNumber="10.50" maxVehicleNumber="12" />
   <interval begin="23800.00" end="23900.00" id="e2_L570_0_3" sampledSeconds="1146.37" nVehEntered="18" nVehLeft="19" nVehSeen="29" meanSpeed="1.52" meanTimeLoss="34.73" meanOccupancy="34.85" maxOccupancy="40.01" meanMaxJamLengthInVehicles="7.48" meanMaxJamLengthInMeters="84.85" maxJamLengthInVehicles="10" maxJamLengthInMeters="134.14" jamLengthInVehiclesSum="1000" jamLengthInMetersSum="9734.29" meanHaltingDuration="767.10" maxHaltingDuration="904.00" haltingDurationSum="7671.00" meanIntervalHaltingDuration="100.00" maxIntervalHaltingDuration="100.00" intervalHaltingDurationSum="1000.00" startedHalts="0.00" meanVehicleNumber="11.55" maxVehicleNumber="13" />
   <interval begin="23900.00" end="24000.00" id="e2_L570_0_3" sampledSeconds="1171.34" nVehEntered="22" nVehLeft="21" nVehSeen="32" meanSpeed="1.73" meanTimeLoss="31.52" meanOccupancy="35.58" maxOccupancy="43.11" meanMaxJamLengthInVehicles="7.27" meanMaxJamLengthInMeters="79.83" maxJamLengthInVehicles="10" maxJamLengthInMeters="134.14" jamLengthInVehiclesSum="1000" jamLengthInMetersSum="9392.44" meanHaltingDuration="867.10" maxHaltingDuration="1004.00" haltingDurationSum="8671.00" meanIntervalHaltingDuration="100.00" maxIntervalHaltingDuration="100.00" intervalHaltingDurationSum="1000.00" startedHalts="0.00" meanVehicleNumber="11.84" maxVehicleNumber="14" />
   <interval begin="24000.00" end="24100.00" id="e2_L570_0_3" sampledSeconds="1212.95" nVehEntered="29" nVehLeft="28" nVehSeen="40" meanSpeed="2.07" meanTimeLoss="25.30" meanOccupancy="36.67" maxOccupancy="46.69" meanMaxJamLengthInVehicles="6.97" meanMaxJamLengthInMeters="73.57" maxJamLengthInVehicles="10" maxJamLengthInMeters="134.14" jamLengthInVehiclesSum="1000" jamLengthInMetersSum="8764.77" meanHaltingDuration="967.10" maxHaltingDuration="1104.00" haltingDurationSum="9671.00" meanIntervalHaltingDuration="100.00" maxIntervalHaltingDuration="100.00" intervalHaltingDurationSum="1000.00" startedHalts="0.00" meanVehicleNumber="12.28" maxVehicleNumber="16" />
   <interval begin="24100.00" end="24200.00" id="e2_L570_0_3" sampledSeconds="1110.29" nVehEntered="13" nVehLeft="15" nVehSeen="25" meanSpeed="1.19" meanTimeLoss="40.20" meanOccupancy="33.84" maxOccupancy="43.11" meanMaxJamLengthInVehicles="8.15" meanMaxJamLengthInMeters="96.70" maxJamLengthInVehicles="10" maxJamLengthInMeters="134.14" jamLengthInVehiclesSum="1000" jamLengthInMetersSum="10598.73" meanHaltingDuration="1067.10" maxHaltingDuration="1204.00" haltingDurationSum="10671.00" meanIntervalHaltingDuration="100.00" maxIntervalHaltingDuration="100.00" intervalHaltingDurationSum="1000.00" startedHalts="0.00" meanVehicleNumber="11.18" maxVehicleNumber="14" />
   <interval begin="24200.00" end="24300.00" id="e2_L570_0_3" sampledSeconds="1000.00" nVehEntered="0" nVehLeft="0" nVehSeen="10" meanSpeed="0.00" meanTimeLoss="100.00" meanOccupancy="30.71" maxOccupancy="30.71" meanMaxJamLengthInVehicles="10.00" meanMaxJamLengthInMeters="134.14" maxJamLengthInVehicles="10" maxJamLengthInMeters="134.14" jamLengthInVehiclesSum="1000" jamLengthInMetersSum="13414.48" meanHaltingDuration="1167.10" maxHaltingDuration="1304.00" haltingDurationSum="11671.00" meanIntervalHaltingDuration="100.00" maxIntervalHaltingDuration="100.00" intervalHaltingDurationSum="1000.00" startedHalts="0.00" meanVehicleNumber="10.00" maxVehicleNumber="10" />
   <interval begin="24300.00" end="24400.00" id="e2_L570_0_3" sampledSeconds="1000.00" nVehEntered="0" nVehLeft="0" nVehSeen="10" meanSpeed="0.00" meanTimeLoss="100.00" meanOccupancy="30.71" maxOccupancy="30.71" meanMaxJamLengthInVehicles="10.00" meanMaxJamLengthInMeters="134.14" maxJamLengthInVehicles="10" maxJamLengthInMeters="134.14" jamLengthInVehiclesSum="1000" jamLengthInMetersSum="13414.47" meanHaltingDuration="1267.10" maxHaltingDuration="1404.00" haltingDurationSum="12671.00" meanIntervalHaltingDuration="100.00" maxIntervalHaltingDuration="100.00" intervalHaltingDurationSum="1000.00" startedHalts="0.00" meanVehicleNumber="10.00" maxVehicleNumber="10" />
   <interval begin="24400.00" end="24500.00" id="e2_L570_0_3" sampledSeconds="1000.00" nVehEntered="0" nVehLeft="0" nVehSeen="10" meanSpeed="0.00" meanTimeLoss="99.98" meanOccupancy="30.11" maxOccupancy="30.71" meanMaxJamLengthInVehicles="10.00" meanMaxJamLengthInMeters="135.04" maxJamLengthInVehicles="10" maxJamLengthInMeters="136.04" jamLengthInVehiclesSum="1000" jamLengthInMetersSum="13503.72" meanHaltingDuration="1367.10" maxHaltingDuration="1504.00" haltingDurationSum="13671.00" meanIntervalHaltingDuration="100.00" maxIntervalHaltingDuration="100.00" intervalHaltingDurationSum="1000.00" startedHalts="0.00" meanVehicleNumber="10.00" maxVehicleNumber="10" />
   <interval begin="24500.00" end="24600.00" id="e2_L570_0_3" sampledSeconds="829.72" nVehEntered="30" nVehLeft="30" nVehSeen="40" meanSpeed="2.55" meanTimeLoss="16.52" meanOccupancy="24.97" maxOccupancy="34.21" meanMaxJamLengthInVehicles="4.94" meanMaxJamLengthInMeters="55.25" maxJamLengthInVehicles="10" maxJamLengthInMeters="137.10" jamLengthInVehiclesSum="577" jamLengthInMetersSum="5963.43" meanHaltingDuration="709.93" maxHaltingDuration="1503.00" haltingDurationSum="9939.00" meanIntervalHaltingDuration="34.64" maxIntervalHaltingDuration="60.00" intervalHaltingDurationSum="485.00" startedHalts="9.00" meanVehicleNumber="8.47" maxVehicleNumber="12" />
   <interval begin="24600.00" end="24700.00" id="e2_L570_0_3" sampledSeconds="743.83" nVehEntered="38" nVehLeft="41" nVehSeen="48" meanSpeed="5.19" meanTimeLoss="9.07" meanOccupancy="22.26" maxOccupancy="33.72" meanMaxJamLengthInVehicles="2.58" meanMaxJamLengthInMeters="27.71" maxJamLengthInVehicles="4" maxJamLengthInMeters="59.06" jamLengthInVehiclesSum="400" jamLengthInMetersSum="3543.69" meanHaltingDuration="151.25" maxHaltingDuration="160.00" haltingDurationSum="605.00" meanIntervalHaltingDuration="100.00" maxIntervalHaltingDuration="100.00" intervalHaltingDurationSum="400.00" startedHalts="0.00" meanVehicleNumber="7.69" maxVehicleNumber="12" />
   <interval begin="24700.00" end="24800.00" id="e2_L570_0_3" sampledSeconds="600.48" nVehEntered="29" nVehLeft="32" nVehSeen="36" meanSpeed="3.94" meanTimeLoss="11.42" meanOccupancy="17.99" maxOccupancy="24.81" meanMaxJamLengthInVehicles="2.95" meanMaxJamLengthInMeters="36.66" maxJamLengthInVehicles="4" maxJamLengthInMeters="59.06" jamLengthInVehiclesSum="400" jamLengthInMetersSum="4245.97" meanHaltingDuration="251.25" maxHaltingDuration="260.00" haltingDurationSum="1005.00" meanIntervalHaltingDuration="100.00" maxIntervalHaltingDuration="100.00" intervalHaltingDurationSum="400.00" startedHalts="0.00" meanVehicleNumber="6.16" maxVehicleNumber="9" />
   <interval begin="24800.00" end="24900.00" id="e2_L570_0_3" sampledSeconds="474.66" nVehEntered="9" nVehLeft="8" nVehSeen="13" meanSpeed="1.87" meanTimeLoss="31.06" meanOccupancy="14.57" maxOccupancy="21.71" meanMaxJamLengthInVehicles="3.53" meanMaxJamLengthInMeters="48.74" maxJamLengthInVehicles="4" maxJamLengthInMeters="59.06" jamLengthInVehiclesSum="400" jamLengthInMetersSum="5134.18" meanHaltingDuration="351.25" maxHaltingDuration="360.00" haltingDurationSum="1405.00" meanIntervalHaltingDuration="100.00" maxIntervalHaltingDuration="100.00" intervalHaltingDurationSum="400.00" startedHalts="0.00" meanVehicleNumber="4.79" maxVehicleNumber="7" />
   <interval begin="24900.00" end="25000.00" id="e2_L570_0_3" sampledSeconds="604.77" nVehEntered="27" nVehLeft="27" nVehSeen="32" meanSpeed="4.02" meanTimeLoss="12.81" meanOccupancy="18.20" maxOccupancy="24.81" meanMaxJamLengthInVehicles="3.01" meanMaxJamLengthInMeters="33.70" maxJamLengthInVehicles="4" maxJamLengthInMeters="58.57" jamLengthInVehiclesSum="400" jamLengthInMetersSum="3921.84" meanHaltingDuration="451.25" maxHaltingDuration="460.00" haltingDurationSum="1805.00" meanIntervalHaltingDuration="100.00" maxIntervalHaltingDuration="100.00" intervalHaltingDurationSum="400.00" startedHalts="0.00" meanVehicleNumber="6.19" maxVehicleNumber="8" />
   <interval begin="25000.00" end="25100.00" id="e2_L570_0_3" sampledSeconds="470.71" nVehEntered="6" nVehLeft="7" nVehSeen="11" meanSpeed="1.61" meanTimeLoss="37.29" meanOccupancy="14.41" maxOccupancy="18.61" meanMaxJamLengthInVehicles="3.67" meanMaxJamLengthInMeters="45.18" maxJamLengthInVehicles="4" maxJamLengthInMeters="51.35" jamLengthInVehiclesSum="400" jamLengthInMetersSum="4706.26" meanHaltingDuration="551.25" maxHaltingDuration="560.00" haltingDurationSum="2205.00" meanIntervalHaltingDuration="100.00" maxIntervalHaltingDuration="100.00" intervalHaltingDurationSum="400.00" startedHalts="1.00" meanVehicleNumber="4.73" maxVehicleNumber="6" />
   <interval begin="25100.00" end="25200.00" id="e2_L570_0_3" sampledSeconds="466.00" nVehEntered="1" nVehLeft="0" nVehSeen="5" meanSpeed="0.30" meanTimeLoss="91.00" meanOccupancy="14.45" maxOccupancy="15.51" meanMaxJamLengthInVehicles="4.45" meanMaxJamLengthInMeters="72.04" maxJamLengthInVehicles="5" maxJamLengthInMeters="93.55" jamLengthInVehiclesSum="452" jamLengthInMetersSum="7242.97" meanHaltingDuration="531.60" maxHaltingDuration="660.00" haltingDurationSum="2658.00" meanIntervalHaltingDuration="90.60" maxIntervalHaltingDuration="100.00" intervalHaltingDurationSum="453.00" startedHalts="1.00" meanVehicleNumber="4.66" maxVehicleNumber="5" />
   <interval begin="25200.00" end="25300.00" id="e2_L570_0_3" sampledSeconds="500.00" nVehEntered="0" nVehLeft="0" nVehSeen="5" meanSpeed="0.02" meanTimeLoss="99.87" meanOccupancy="15.51" maxOccupancy="15.51" meanMaxJamLengthInVehicles="5.00" meanMaxJamLengthInMeters="93.09" maxJamLengthInVehicles="5" maxJamLengthInMeters="93.55" jamLengthInVehiclesSum="500" jamLengthInMetersSum="9308.90" meanHaltingDuration="631.60" maxHaltingDuration="760.00" haltingDurationSum="3158.00" meanIntervalHaltingDuration="100.00" maxIntervalHaltingDuration="100.00" intervalHaltingDurationSum="500.00" startedHalts="0.00" meanVehicleNumber="5.00" maxVehicleNumber="5" />
   <interval begin="25300.00" end="25400.00" id="e2_L570_0_3" sampledSeconds="500.00" nVehEntered="0" nVehLeft="0" nVehSeen="5" meanSpeed="0.00" meanTimeLoss="99.98" meanOccupancy="15.51" maxOccupancy="15.51" meanMaxJamLengthInVehicles="5.00" meanMaxJamLengthInMeters="88.88" maxJamLengthInVehicles="5" maxJamLengthInMeters="89.31" jamLengthInVehiclesSum="500" jamLengthInMetersSum="8888.41" meanHaltingDuration="731.60" maxHaltingDuration="860.00" haltingDurationSum="3658.00" meanIntervalHaltingDuration="100.00" maxIntervalHaltingDuration="100.00" intervalHaltingDurationSum="500.00" startedHalts="0.00" meanVehicleNumber="5.00" maxVehicleNumber="5" />
   <interval begin="25400.00" end="25500.00" id="e2_L570_0_3" sampledSeconds="500.00" nVehEntered="0" nVehLeft="0" nVehSeen="5" meanSpeed="0.00" meanTimeLoss="100.00" meanOccupancy="15.51" maxOccupancy="15.51" meanMaxJamLengthInVehicles="5.00" meanMaxJamLengthInMeters="88.87" maxJamLengthInVehicles="5" maxJamLengthInMeters="88.87" jamLengthInVehiclesSum="500" jamLengthInMetersSum="8886.65" meanHaltingDuration="831.60" maxHaltingDuration="960.00" haltingDurationSum="4158.00" meanIntervalHaltingDuration="100.00" maxIntervalHaltingDuration="100.00" intervalHaltingDurationSum="500.00" startedHalts="0.00" meanVehicleNumber="5.00" maxVehicleNumber="5" />
   <interval begin="25500.00" end="25600.00" id="e2_L570_0_3" sampledSeconds="500.00" nVehEntered="0" nVehLeft="0" nVehSeen="5" meanSpeed="0.00" meanTimeLoss="100.00" meanOccupancy="15.51" maxOccupancy="15.51" meanMaxJamLengthInVehicles="5.00" meanMaxJamLengthInMeters="88.87" maxJamLengthInVehicles="5" maxJamLengthInMeters="88.87" jamLengthInVehiclesSum="500" jamLengthInMetersSum="8886.65" meanHaltingDuration="931.60" maxHaltingDuration="1060.00" haltingDurationSum="4658.00" meanIntervalHaltingDuration="100.00" maxIntervalHaltingDuration="100.00" intervalHaltingDurationSum="500.00" startedHalts="0.00" meanVehicleNumber="5.00" maxVehicleNumber="5" />
   <interval begin="25600.00" end="25700.00" id="e2_L570_0_3" sampledSeconds="500.00" nVehEntered="0" nVehLeft="0" nVehSeen="5" meanSpeed="0.00" meanTimeLoss="100.00" meanOccupancy="15.51" maxOccupancy="15.51" meanMaxJamLengthInVehicles="5.00" meanMaxJamLengthInMeters="88.87" maxJamLengthInVehicles="5" maxJamLengthInMeters="88.87" jamLengthInVehiclesSum="500" jamLengthInMetersSum="8886.65" meanHaltingDuration="1031.60" maxHaltingDuration="1160.00" haltingDurationSum="5158.00" meanIntervalHaltingDuration="100.00" maxIntervalHaltingDuration="100.00" intervalHaltingDurationSum="500.00" startedHalts="0.00" meanVehicleNumber="5.00" maxVehicleNumber="5" />
   <interval begin="25700.00" end="25800.00" id="e2_L570_0_3" sampledSeconds="500.00" nVehEntered="0" nVehLeft="0" nVehSeen="5" meanSpeed="0.00" meanTimeLoss="100.00" meanOccupancy="15.51" maxOccupancy="15.51" meanMaxJamLengthInVehicles="5.00" meanMaxJamLengthInMeters="88.87" maxJamLengthInVehicles="5" maxJamLengthInMeters="88.87" jamLengthInVehiclesSum="500" jamLengthInMetersSum="8886.65" meanHaltingDuration="1131.60" maxHaltingDuration="1260.00" haltingDurationSum="5658.00" meanIntervalHaltingDuration="100.00" maxIntervalHaltingDuration="100.00" intervalHaltingDurationSum="500.00" startedHalts="0.00" meanVehicleNumber="5.00" maxVehicleNumber="5" />
   <interval begin="25800.00" end="25900.00" id="e2_L570_0_3" sampledSeconds="500.00" nVehEntered="0" nVehLeft="0" nVehSeen="5" meanSpeed="0.00" meanTimeLoss="100.00" meanOccupancy="15.51" maxOccupancy="15.51" meanMaxJamLengthInVehicles="5.00" meanMaxJamLengthInMeters="88.87" maxJamLengthInVehicles="5" maxJamLengthInMeters="88.87" jamLengthInVehiclesSum="500" jamLengthInMetersSum="8886.65" meanHaltingDuration="1231.60" maxHaltingDuration="1360.00" haltingDurationSum="6158.00" meanIntervalHaltingDuration="100.00" maxIntervalHaltingDuration="100.00" intervalHaltingDurationSum="500.00" startedHalts="0.00" meanVehicleNumber="5.00" maxVehicleNumber="5" />